
     Program PWSCF v.6.3MaX starts on 13Oct2018 at 23:12:56 

     This program is part of the open-source Quantum ESPRESSO suite
     for quantum simulation of materials; please cite
         "P. Giannozzi et al., J. Phys.:Condens. Matter 21 395502 (2009);
         "P. Giannozzi et al., J. Phys.:Condens. Matter 29 465901 (2017);
          URL http://www.quantum-espresso.org", 
     in publications or presentations arising from this work. More details at
     http://www.quantum-espresso.org/quote

     Parallel version (MPI), running on    32 processors

     MPI processes distributed on     1 nodes
     R & G space division:  proc/nbgrp/npool/nimage =      32
     Reading input from sic512.inp

     Current dimensions of program PWSCF are:
     Max number of different atomic species (ntypx) = 10
     Max number of k-points (npk) =  40000
     Max angular momentum in pseudopotentials (lmaxx) =  3
     Message from routine iosys:
     minimal I/O required, wf_collect reset to FALSE

     Subspace diagonalization in iterative solution of the eigenvalue problem:
     one sub-group per band group will be used
     scalapack distributed-memory algorithm (size of sub-group:  5*  5 procs)

     Found symmetry operation: I + (  0.0000  0.0000  0.5000)
     This is a supercell, fractional translations are disabled
 
     Parallelization info
     --------------------
     sticks:   dense  smooth     PW     G-vecs:    dense   smooth      PW
     Min         377     377     94                31293    31293    3899
     Max         378     378     96                31296    31296    3902
     Sum       12093   12093   3017              1001465  1001465  124823
 


     bravais-lattice index     =            0
     lattice parameter (alat)  =      32.9538  a.u.
     unit-cell volume          =   35786.2758 (a.u.)^3
     number of atoms/cell      =          512
     number of atomic types    =            2
     number of electrons       =      2048.00
     number of Kohn-Sham states=         1024
     kinetic-energy cutoff     =      35.0000  Ry
     charge density cutoff     =     140.0000  Ry
     convergence threshold     =      1.0E-08
     mixing beta               =       0.7000
     number of iterations used =            8  plain     mixing
     Exchange-correlation      = PBE ( 1  4  3  4 0 0)

     celldm(1)=  32.953800  celldm(2)=   0.000000  celldm(3)=   0.000000
     celldm(4)=   0.000000  celldm(5)=   0.000000  celldm(6)=   0.000000

     crystal axes: (cart. coord. in units of alat)
               a(1) = (   1.000000   0.000000   0.000000 )  
               a(2) = (   0.000000   1.000000   0.000000 )  
               a(3) = (   0.000000   0.000000   1.000000 )  

     reciprocal axes: (cart. coord. in units 2 pi/alat)
               b(1) = (  1.000000  0.000000  0.000000 )  
               b(2) = (  0.000000  1.000000  0.000000 )  
               b(3) = (  0.000000  0.000000  1.000000 )  


     PseudoPot. # 1 for C  read from file:
     ../../../C_ONCV_PBE-1.0.upf
     MD5 check sum: 40f8c33130f0afa4272e9dcc1c4fb0df
     Pseudo is Norm-conserving, Zval =  4.0
     Generated using ONCVPSP code by D. R. Hamann
     Using radial grid of  602 points,  4 beta functions with: 
                l(1) =   0
                l(2) =   0
                l(3) =   1
                l(4) =   1

     PseudoPot. # 2 for Si read from file:
     ../../../Si_ONCV_PBE-1.0.upf
     MD5 check sum: 2de5a83d12544a9ea852f39b88f19b1f
     Pseudo is Norm-conserving, Zval =  4.0
     Generated using ONCVPSP code by D. R. Hamann
     Using radial grid of  602 points,  4 beta functions with: 
                l(1) =   0
                l(2) =   0
                l(3) =   1
                l(4) =   1

     atomic species   valence    mass     pseudopotential
        Si             4.00     1.00000     C ( 1.00)
        C              4.00     1.00000     Si( 1.00)

      6 Sym. Ops. (no inversion) found


                                    s                        frac. trans.

      isym =  1     identity                                     

 cryst.   s( 1) = (     1          0          0      )
                  (     0          1          0      )
                  (     0          0          1      )

 cart.    s( 1) = (  1.0000000  0.0000000  0.0000000 )
                  (  0.0000000  1.0000000  0.0000000 )
                  (  0.0000000  0.0000000  1.0000000 )


      isym =  2     120 deg rotation - cart. axis [-1,-1,-1]     

 cryst.   s( 2) = (     0          0          1      )
                  (     1          0          0      )
                  (     0          1          0      )

 cart.    s( 2) = (  0.0000000  1.0000000  0.0000000 )
                  (  0.0000000  0.0000000  1.0000000 )
                  (  1.0000000  0.0000000  0.0000000 )


      isym =  3     120 deg rotation - cart. axis [1,1,1]        

 cryst.   s( 3) = (     0          1          0      )
                  (     0          0          1      )
                  (     1          0          0      )

 cart.    s( 3) = (  0.0000000  0.0000000  1.0000000 )
                  (  1.0000000  0.0000000  0.0000000 )
                  (  0.0000000  1.0000000  0.0000000 )


      isym =  4     inv. 180 deg rotation - cart. axis [1,-1,0]  

 cryst.   s( 4) = (     0          1          0      )
                  (     1          0          0      )
                  (     0          0          1      )

 cart.    s( 4) = (  0.0000000  1.0000000  0.0000000 )
                  (  1.0000000  0.0000000  0.0000000 )
                  (  0.0000000  0.0000000  1.0000000 )


      isym =  5     inv. 180 deg rotation - cart. axis [-1,0,1]  

 cryst.   s( 5) = (     0          0          1      )
                  (     0          1          0      )
                  (     1          0          0      )

 cart.    s( 5) = (  0.0000000  0.0000000  1.0000000 )
                  (  0.0000000  1.0000000  0.0000000 )
                  (  1.0000000  0.0000000  0.0000000 )


      isym =  6     inv. 180 deg rotation - cart. axis [0,1,-1]  

 cryst.   s( 6) = (     1          0          0      )
                  (     0          0          1      )
                  (     0          1          0      )

 cart.    s( 6) = (  1.0000000  0.0000000  0.0000000 )
                  (  0.0000000  0.0000000  1.0000000 )
                  (  0.0000000  1.0000000  0.0000000 )


   Cartesian axes

     site n.     atom                  positions (alat units)
         1           Si  tau(   1) = (  -0.5000408  -0.5000408  -0.5000408  )
         2           Si  tau(   2) = (  -0.5000408  -0.5000408  -0.0000408  )
         3           Si  tau(   3) = (  -0.5000408  -0.0000408  -0.5000408  )
         4           Si  tau(   4) = (  -0.5000408  -0.0000408  -0.0000408  )
         5           Si  tau(   5) = (  -0.0000408  -0.5000408  -0.5000408  )
         6           Si  tau(   6) = (  -0.0000408  -0.5000408  -0.0000408  )
         7           Si  tau(   7) = (  -0.0000408  -0.0000408  -0.5000408  )
         8           Si  tau(   8) = (  -0.0000408  -0.0000408  -0.0000408  )
         9           C   tau(   9) = (  -0.4375306  -0.4375306  -0.4375306  )
        10           C   tau(  10) = (  -0.4375306  -0.4375306   0.0624694  )
        11           C   tau(  11) = (  -0.4375306   0.0624694  -0.4375306  )
        12           C   tau(  12) = (  -0.4375306   0.0624694   0.0624694  )
        13           C   tau(  13) = (   0.0624694  -0.4375306  -0.4375306  )
        14           C   tau(  14) = (   0.0624694  -0.4375306   0.0624694  )
        15           C   tau(  15) = (   0.0624694   0.0624694  -0.4375306  )
        16           C   tau(  16) = (   0.0624694   0.0624694   0.0624694  )
        17           Si  tau(  17) = (  -0.3750204  -0.3750204  -0.5000408  )
        18           Si  tau(  18) = (  -0.3750204  -0.3750204  -0.0000408  )
        19           Si  tau(  19) = (  -0.3750204   0.1249796  -0.5000408  )
        20           Si  tau(  20) = (  -0.3750204   0.1249796  -0.0000408  )
        21           Si  tau(  21) = (   0.1249796  -0.3750204  -0.5000408  )
        22           Si  tau(  22) = (   0.1249796  -0.3750204  -0.0000408  )
        23           Si  tau(  23) = (   0.1249796   0.1249796  -0.5000408  )
        24           Si  tau(  24) = (   0.1249796   0.1249796  -0.0000408  )
        25           C   tau(  25) = (  -0.3125102  -0.3125102  -0.4375306  )
        26           C   tau(  26) = (  -0.3125102  -0.3125102   0.0624694  )
        27           C   tau(  27) = (  -0.3125102   0.1874898  -0.4375306  )
        28           C   tau(  28) = (  -0.3125102   0.1874898   0.0624694  )
        29           C   tau(  29) = (   0.1874898  -0.3125102  -0.4375306  )
        30           C   tau(  30) = (   0.1874898  -0.3125102   0.0624694  )
        31           C   tau(  31) = (   0.1874898   0.1874898  -0.4375306  )
        32           C   tau(  32) = (   0.1874898   0.1874898   0.0624694  )
        33           Si  tau(  33) = (  -0.5000408  -0.3750204  -0.3750204  )
        34           Si  tau(  34) = (  -0.5000408  -0.3750204   0.1249796  )
        35           Si  tau(  35) = (  -0.5000408   0.1249796  -0.3750204  )
        36           Si  tau(  36) = (  -0.5000408   0.1249796   0.1249796  )
        37           Si  tau(  37) = (  -0.0000408  -0.3750204  -0.3750204  )
        38           Si  tau(  38) = (  -0.0000408  -0.3750204   0.1249796  )
        39           Si  tau(  39) = (  -0.0000408   0.1249796  -0.3750204  )
        40           Si  tau(  40) = (  -0.0000408   0.1249796   0.1249796  )
        41           C   tau(  41) = (  -0.4375306  -0.3125102  -0.3125102  )
        42           C   tau(  42) = (  -0.4375306  -0.3125102   0.1874898  )
        43           C   tau(  43) = (  -0.4375306   0.1874898  -0.3125102  )
        44           C   tau(  44) = (  -0.4375306   0.1874898   0.1874898  )
        45           C   tau(  45) = (   0.0624694  -0.3125102  -0.3125102  )
        46           C   tau(  46) = (   0.0624694  -0.3125102   0.1874898  )
        47           C   tau(  47) = (   0.0624694   0.1874898  -0.3125102  )
        48           C   tau(  48) = (   0.0624694   0.1874898   0.1874898  )
        49           Si  tau(  49) = (  -0.3750204  -0.5000408  -0.3750204  )
        50           Si  tau(  50) = (  -0.3750204  -0.5000408   0.1249796  )
        51           Si  tau(  51) = (  -0.3750204  -0.0000408  -0.3750204  )
        52           Si  tau(  52) = (  -0.3750204  -0.0000408   0.1249796  )
        53           Si  tau(  53) = (   0.1249796  -0.5000408  -0.3750204  )
        54           Si  tau(  54) = (   0.1249796  -0.5000408   0.1249796  )
        55           Si  tau(  55) = (   0.1249796  -0.0000408  -0.3750204  )
        56           Si  tau(  56) = (   0.1249796  -0.0000408   0.1249796  )
        57           C   tau(  57) = (  -0.3125102  -0.4375306  -0.3125102  )
        58           C   tau(  58) = (  -0.3125102  -0.4375306   0.1874898  )
        59           C   tau(  59) = (  -0.3125102   0.0624694  -0.3125102  )
        60           C   tau(  60) = (  -0.3125102   0.0624694   0.1874898  )
        61           C   tau(  61) = (   0.1874898  -0.4375306  -0.3125102  )
        62           C   tau(  62) = (   0.1874898  -0.4375306   0.1874898  )
        63           C   tau(  63) = (   0.1874898   0.0624694  -0.3125102  )
        64           C   tau(  64) = (   0.1874898   0.0624694   0.1874898  )
        65           Si  tau(  65) = (  -0.5000408  -0.5000408  -0.2500000  )
        66           Si  tau(  66) = (  -0.5000408  -0.5000408   0.2500000  )
        67           Si  tau(  67) = (  -0.5000408  -0.0000408  -0.2500000  )
        68           Si  tau(  68) = (  -0.5000408  -0.0000408   0.2500000  )
        69           Si  tau(  69) = (  -0.0000408  -0.5000408  -0.2500000  )
        70           Si  tau(  70) = (  -0.0000408  -0.5000408   0.2500000  )
        71           Si  tau(  71) = (  -0.0000408  -0.0000408  -0.2500000  )
        72           Si  tau(  72) = (  -0.0000408  -0.0000408   0.2500000  )
        73           C   tau(  73) = (  -0.4375306  -0.4375306  -0.1874898  )
        74           C   tau(  74) = (  -0.4375306  -0.4375306   0.3125102  )
        75           C   tau(  75) = (  -0.4375306   0.0624694  -0.1874898  )
        76           C   tau(  76) = (  -0.4375306   0.0624694   0.3125102  )
        77           C   tau(  77) = (   0.0624694  -0.4375306  -0.1874898  )
        78           C   tau(  78) = (   0.0624694  -0.4375306   0.3125102  )
        79           C   tau(  79) = (   0.0624694   0.0624694  -0.1874898  )
        80           C   tau(  80) = (   0.0624694   0.0624694   0.3125102  )
        81           Si  tau(  81) = (  -0.3750204  -0.3750204  -0.2500000  )
        82           Si  tau(  82) = (  -0.3750204  -0.3750204   0.2500000  )
        83           Si  tau(  83) = (  -0.3750204   0.1249796  -0.2500000  )
        84           Si  tau(  84) = (  -0.3750204   0.1249796   0.2500000  )
        85           Si  tau(  85) = (   0.1249796  -0.3750204  -0.2500000  )
        86           Si  tau(  86) = (   0.1249796  -0.3750204   0.2500000  )
        87           Si  tau(  87) = (   0.1249796   0.1249796  -0.2500000  )
        88           Si  tau(  88) = (   0.1249796   0.1249796   0.2500000  )
        89           C   tau(  89) = (  -0.3125102  -0.3125102  -0.1874898  )
        90           C   tau(  90) = (  -0.3125102  -0.3125102   0.3125102  )
        91           C   tau(  91) = (  -0.3125102   0.1874898  -0.1874898  )
        92           C   tau(  92) = (  -0.3125102   0.1874898   0.3125102  )
        93           C   tau(  93) = (   0.1874898  -0.3125102  -0.1874898  )
        94           C   tau(  94) = (   0.1874898  -0.3125102   0.3125102  )
        95           C   tau(  95) = (   0.1874898   0.1874898  -0.1874898  )
        96           C   tau(  96) = (   0.1874898   0.1874898   0.3125102  )
        97           Si  tau(  97) = (  -0.5000408  -0.3750204  -0.1249796  )
        98           Si  tau(  98) = (  -0.5000408  -0.3750204   0.3750204  )
        99           Si  tau(  99) = (  -0.5000408   0.1249796  -0.1249796  )
       100           Si  tau( 100) = (  -0.5000408   0.1249796   0.3750204  )
       101           Si  tau( 101) = (  -0.0000408  -0.3750204  -0.1249796  )
       102           Si  tau( 102) = (  -0.0000408  -0.3750204   0.3750204  )
       103           Si  tau( 103) = (  -0.0000408   0.1249796  -0.1249796  )
       104           Si  tau( 104) = (  -0.0000408   0.1249796   0.3750204  )
       105           C   tau( 105) = (  -0.4375306  -0.3125102  -0.0624694  )
       106           C   tau( 106) = (  -0.4375306  -0.3125102   0.4375306  )
       107           C   tau( 107) = (  -0.4375306   0.1874898  -0.0624694  )
       108           C   tau( 108) = (  -0.4375306   0.1874898   0.4375306  )
       109           C   tau( 109) = (   0.0624694  -0.3125102  -0.0624694  )
       110           C   tau( 110) = (   0.0624694  -0.3125102   0.4375306  )
       111           C   tau( 111) = (   0.0624694   0.1874898  -0.0624694  )
       112           C   tau( 112) = (   0.0624694   0.1874898   0.4375306  )
       113           Si  tau( 113) = (  -0.3750204  -0.5000408  -0.1249796  )
       114           Si  tau( 114) = (  -0.3750204  -0.5000408   0.3750204  )
       115           Si  tau( 115) = (  -0.3750204  -0.0000408  -0.1249796  )
       116           Si  tau( 116) = (  -0.3750204  -0.0000408   0.3750204  )
       117           Si  tau( 117) = (   0.1249796  -0.5000408  -0.1249796  )
       118           Si  tau( 118) = (   0.1249796  -0.5000408   0.3750204  )
       119           Si  tau( 119) = (   0.1249796  -0.0000408  -0.1249796  )
       120           Si  tau( 120) = (   0.1249796  -0.0000408   0.3750204  )
       121           C   tau( 121) = (  -0.3125102  -0.4375306  -0.0624694  )
       122           C   tau( 122) = (  -0.3125102  -0.4375306   0.4375306  )
       123           C   tau( 123) = (  -0.3125102   0.0624694  -0.0624694  )
       124           C   tau( 124) = (  -0.3125102   0.0624694   0.4375306  )
       125           C   tau( 125) = (   0.1874898  -0.4375306  -0.0624694  )
       126           C   tau( 126) = (   0.1874898  -0.4375306   0.4375306  )
       127           C   tau( 127) = (   0.1874898   0.0624694  -0.0624694  )
       128           C   tau( 128) = (   0.1874898   0.0624694   0.4375306  )
       129           Si  tau( 129) = (  -0.5000408  -0.2500000  -0.5000408  )
       130           Si  tau( 130) = (  -0.5000408  -0.2500000  -0.0000408  )
       131           Si  tau( 131) = (  -0.5000408   0.2500000  -0.5000408  )
       132           Si  tau( 132) = (  -0.5000408   0.2500000  -0.0000408  )
       133           Si  tau( 133) = (  -0.0000408  -0.2500000  -0.5000408  )
       134           Si  tau( 134) = (  -0.0000408  -0.2500000  -0.0000408  )
       135           Si  tau( 135) = (  -0.0000408   0.2500000  -0.5000408  )
       136           Si  tau( 136) = (  -0.0000408   0.2500000  -0.0000408  )
       137           C   tau( 137) = (  -0.4375306  -0.1874898  -0.4375306  )
       138           C   tau( 138) = (  -0.4375306  -0.1874898   0.0624694  )
       139           C   tau( 139) = (  -0.4375306   0.3125102  -0.4375306  )
       140           C   tau( 140) = (  -0.4375306   0.3125102   0.0624694  )
       141           C   tau( 141) = (   0.0624694  -0.1874898  -0.4375306  )
       142           C   tau( 142) = (   0.0624694  -0.1874898   0.0624694  )
       143           C   tau( 143) = (   0.0624694   0.3125102  -0.4375306  )
       144           C   tau( 144) = (   0.0624694   0.3125102   0.0624694  )
       145           Si  tau( 145) = (  -0.3750204  -0.1249796  -0.5000408  )
       146           Si  tau( 146) = (  -0.3750204  -0.1249796  -0.0000408  )
       147           Si  tau( 147) = (  -0.3750204   0.3750204  -0.5000408  )
       148           Si  tau( 148) = (  -0.3750204   0.3750204  -0.0000408  )
       149           Si  tau( 149) = (   0.1249796  -0.1249796  -0.5000408  )
       150           Si  tau( 150) = (   0.1249796  -0.1249796  -0.0000408  )
       151           Si  tau( 151) = (   0.1249796   0.3750204  -0.5000408  )
       152           Si  tau( 152) = (   0.1249796   0.3750204  -0.0000408  )
       153           C   tau( 153) = (  -0.3125102  -0.0624694  -0.4375306  )
       154           C   tau( 154) = (  -0.3125102  -0.0624694   0.0624694  )
       155           C   tau( 155) = (  -0.3125102   0.4375306  -0.4375306  )
       156           C   tau( 156) = (  -0.3125102   0.4375306   0.0624694  )
       157           C   tau( 157) = (   0.1874898  -0.0624694  -0.4375306  )
       158           C   tau( 158) = (   0.1874898  -0.0624694   0.0624694  )
       159           C   tau( 159) = (   0.1874898   0.4375306  -0.4375306  )
       160           C   tau( 160) = (   0.1874898   0.4375306   0.0624694  )
       161           Si  tau( 161) = (  -0.5000408  -0.1249796  -0.3750204  )
       162           Si  tau( 162) = (  -0.5000408  -0.1249796   0.1249796  )
       163           Si  tau( 163) = (  -0.5000408   0.3750204  -0.3750204  )
       164           Si  tau( 164) = (  -0.5000408   0.3750204   0.1249796  )
       165           Si  tau( 165) = (  -0.0000408  -0.1249796  -0.3750204  )
       166           Si  tau( 166) = (  -0.0000408  -0.1249796   0.1249796  )
       167           Si  tau( 167) = (  -0.0000408   0.3750204  -0.3750204  )
       168           Si  tau( 168) = (  -0.0000408   0.3750204   0.1249796  )
       169           C   tau( 169) = (  -0.4375306  -0.0624694  -0.3125102  )
       170           C   tau( 170) = (  -0.4375306  -0.0624694   0.1874898  )
       171           C   tau( 171) = (  -0.4375306   0.4375306  -0.3125102  )
       172           C   tau( 172) = (  -0.4375306   0.4375306   0.1874898  )
       173           C   tau( 173) = (   0.0624694  -0.0624694  -0.3125102  )
       174           C   tau( 174) = (   0.0624694  -0.0624694   0.1874898  )
       175           C   tau( 175) = (   0.0624694   0.4375306  -0.3125102  )
       176           C   tau( 176) = (   0.0624694   0.4375306   0.1874898  )
       177           Si  tau( 177) = (  -0.3750204  -0.2500000  -0.3750204  )
       178           Si  tau( 178) = (  -0.3750204  -0.2500000   0.1249796  )
       179           Si  tau( 179) = (  -0.3750204   0.2500000  -0.3750204  )
       180           Si  tau( 180) = (  -0.3750204   0.2500000   0.1249796  )
       181           Si  tau( 181) = (   0.1249796  -0.2500000  -0.3750204  )
       182           Si  tau( 182) = (   0.1249796  -0.2500000   0.1249796  )
       183           Si  tau( 183) = (   0.1249796   0.2500000  -0.3750204  )
       184           Si  tau( 184) = (   0.1249796   0.2500000   0.1249796  )
       185           C   tau( 185) = (  -0.3125102  -0.1874898  -0.3125102  )
       186           C   tau( 186) = (  -0.3125102  -0.1874898   0.1874898  )
       187           C   tau( 187) = (  -0.3125102   0.3125102  -0.3125102  )
       188           C   tau( 188) = (  -0.3125102   0.3125102   0.1874898  )
       189           C   tau( 189) = (   0.1874898  -0.1874898  -0.3125102  )
       190           C   tau( 190) = (   0.1874898  -0.1874898   0.1874898  )
       191           C   tau( 191) = (   0.1874898   0.3125102  -0.3125102  )
       192           C   tau( 192) = (   0.1874898   0.3125102   0.1874898  )
       193           Si  tau( 193) = (  -0.5000408  -0.2500000  -0.2500000  )
       194           Si  tau( 194) = (  -0.5000408  -0.2500000   0.2500000  )
       195           Si  tau( 195) = (  -0.5000408   0.2500000  -0.2500000  )
       196           Si  tau( 196) = (  -0.5000408   0.2500000   0.2500000  )
       197           Si  tau( 197) = (  -0.0000408  -0.2500000  -0.2500000  )
       198           Si  tau( 198) = (  -0.0000408  -0.2500000   0.2500000  )
       199           Si  tau( 199) = (  -0.0000408   0.2500000  -0.2500000  )
       200           Si  tau( 200) = (  -0.0000408   0.2500000   0.2500000  )
       201           C   tau( 201) = (  -0.4375306  -0.1874898  -0.1874898  )
       202           C   tau( 202) = (  -0.4375306  -0.1874898   0.3125102  )
       203           C   tau( 203) = (  -0.4375306   0.3125102  -0.1874898  )
       204           C   tau( 204) = (  -0.4375306   0.3125102   0.3125102  )
       205           C   tau( 205) = (   0.0624694  -0.1874898  -0.1874898  )
       206           C   tau( 206) = (   0.0624694  -0.1874898   0.3125102  )
       207           C   tau( 207) = (   0.0624694   0.3125102  -0.1874898  )
       208           C   tau( 208) = (   0.0624694   0.3125102   0.3125102  )
       209           Si  tau( 209) = (  -0.3750204  -0.1249796  -0.2500000  )
       210           Si  tau( 210) = (  -0.3750204  -0.1249796   0.2500000  )
       211           Si  tau( 211) = (  -0.3750204   0.3750204  -0.2500000  )
       212           Si  tau( 212) = (  -0.3750204   0.3750204   0.2500000  )
       213           Si  tau( 213) = (   0.1249796  -0.1249796  -0.2500000  )
       214           Si  tau( 214) = (   0.1249796  -0.1249796   0.2500000  )
       215           Si  tau( 215) = (   0.1249796   0.3750204  -0.2500000  )
       216           Si  tau( 216) = (   0.1249796   0.3750204   0.2500000  )
       217           C   tau( 217) = (  -0.3125102  -0.0624694  -0.1874898  )
       218           C   tau( 218) = (  -0.3125102  -0.0624694   0.3125102  )
       219           C   tau( 219) = (  -0.3125102   0.4375306  -0.1874898  )
       220           C   tau( 220) = (  -0.3125102   0.4375306   0.3125102  )
       221           C   tau( 221) = (   0.1874898  -0.0624694  -0.1874898  )
       222           C   tau( 222) = (   0.1874898  -0.0624694   0.3125102  )
       223           C   tau( 223) = (   0.1874898   0.4375306  -0.1874898  )
       224           C   tau( 224) = (   0.1874898   0.4375306   0.3125102  )
       225           Si  tau( 225) = (  -0.5000408  -0.1249796  -0.1249796  )
       226           Si  tau( 226) = (  -0.5000408  -0.1249796   0.3750204  )
       227           Si  tau( 227) = (  -0.5000408   0.3750204  -0.1249796  )
       228           Si  tau( 228) = (  -0.5000408   0.3750204   0.3750204  )
       229           Si  tau( 229) = (  -0.0000408  -0.1249796  -0.1249796  )
       230           Si  tau( 230) = (  -0.0000408  -0.1249796   0.3750204  )
       231           Si  tau( 231) = (  -0.0000408   0.3750204  -0.1249796  )
       232           Si  tau( 232) = (  -0.0000408   0.3750204   0.3750204  )
       233           C   tau( 233) = (  -0.4375306  -0.0624694  -0.0624694  )
       234           C   tau( 234) = (  -0.4375306  -0.0624694   0.4375306  )
       235           C   tau( 235) = (  -0.4375306   0.4375306  -0.0624694  )
       236           C   tau( 236) = (  -0.4375306   0.4375306   0.4375306  )
       237           C   tau( 237) = (   0.0624694  -0.0624694  -0.0624694  )
       238           C   tau( 238) = (   0.0624694  -0.0624694   0.4375306  )
       239           C   tau( 239) = (   0.0624694   0.4375306  -0.0624694  )
       240           C   tau( 240) = (   0.0624694   0.4375306   0.4375306  )
       241           Si  tau( 241) = (  -0.3750204  -0.2500000  -0.1249796  )
       242           Si  tau( 242) = (  -0.3750204  -0.2500000   0.3750204  )
       243           Si  tau( 243) = (  -0.3750204   0.2500000  -0.1249796  )
       244           Si  tau( 244) = (  -0.3750204   0.2500000   0.3750204  )
       245           Si  tau( 245) = (   0.1249796  -0.2500000  -0.1249796  )
       246           Si  tau( 246) = (   0.1249796  -0.2500000   0.3750204  )
       247           Si  tau( 247) = (   0.1249796   0.2500000  -0.1249796  )
       248           Si  tau( 248) = (   0.1249796   0.2500000   0.3750204  )
       249           C   tau( 249) = (  -0.3125102  -0.1874898  -0.0624694  )
       250           C   tau( 250) = (  -0.3125102  -0.1874898   0.4375306  )
       251           C   tau( 251) = (  -0.3125102   0.3125102  -0.0624694  )
       252           C   tau( 252) = (  -0.3125102   0.3125102   0.4375306  )
       253           C   tau( 253) = (   0.1874898  -0.1874898  -0.0624694  )
       254           C   tau( 254) = (   0.1874898  -0.1874898   0.4375306  )
       255           C   tau( 255) = (   0.1874898   0.3125102  -0.0624694  )
       256           C   tau( 256) = (   0.1874898   0.3125102   0.4375306  )
       257           Si  tau( 257) = (  -0.2500000  -0.5000408  -0.5000408  )
       258           Si  tau( 258) = (  -0.2500000  -0.5000408  -0.0000408  )
       259           Si  tau( 259) = (  -0.2500000  -0.0000408  -0.5000408  )
       260           Si  tau( 260) = (  -0.2500000  -0.0000408  -0.0000408  )
       261           Si  tau( 261) = (   0.2500000  -0.5000408  -0.5000408  )
       262           Si  tau( 262) = (   0.2500000  -0.5000408  -0.0000408  )
       263           Si  tau( 263) = (   0.2500000  -0.0000408  -0.5000408  )
       264           Si  tau( 264) = (   0.2500000  -0.0000408  -0.0000408  )
       265           C   tau( 265) = (  -0.1874898  -0.4375306  -0.4375306  )
       266           C   tau( 266) = (  -0.1874898  -0.4375306   0.0624694  )
       267           C   tau( 267) = (  -0.1874898   0.0624694  -0.4375306  )
       268           C   tau( 268) = (  -0.1874898   0.0624694   0.0624694  )
       269           C   tau( 269) = (   0.3125102  -0.4375306  -0.4375306  )
       270           C   tau( 270) = (   0.3125102  -0.4375306   0.0624694  )
       271           C   tau( 271) = (   0.3125102   0.0624694  -0.4375306  )
       272           C   tau( 272) = (   0.3125102   0.0624694   0.0624694  )
       273           Si  tau( 273) = (  -0.1249796  -0.3750204  -0.5000408  )
       274           Si  tau( 274) = (  -0.1249796  -0.3750204  -0.0000408  )
       275           Si  tau( 275) = (  -0.1249796   0.1249796  -0.5000408  )
       276           Si  tau( 276) = (  -0.1249796   0.1249796  -0.0000408  )
       277           Si  tau( 277) = (   0.3750204  -0.3750204  -0.5000408  )
       278           Si  tau( 278) = (   0.3750204  -0.3750204  -0.0000408  )
       279           Si  tau( 279) = (   0.3750204   0.1249796  -0.5000408  )
       280           Si  tau( 280) = (   0.3750204   0.1249796  -0.0000408  )
       281           C   tau( 281) = (  -0.0624694  -0.3125102  -0.4375306  )
       282           C   tau( 282) = (  -0.0624694  -0.3125102   0.0624694  )
       283           C   tau( 283) = (  -0.0624694   0.1874898  -0.4375306  )
       284           C   tau( 284) = (  -0.0624694   0.1874898   0.0624694  )
       285           C   tau( 285) = (   0.4375306  -0.3125102  -0.4375306  )
       286           C   tau( 286) = (   0.4375306  -0.3125102   0.0624694  )
       287           C   tau( 287) = (   0.4375306   0.1874898  -0.4375306  )
       288           C   tau( 288) = (   0.4375306   0.1874898   0.0624694  )
       289           Si  tau( 289) = (  -0.2500000  -0.3750204  -0.3750204  )
       290           Si  tau( 290) = (  -0.2500000  -0.3750204   0.1249796  )
       291           Si  tau( 291) = (  -0.2500000   0.1249796  -0.3750204  )
       292           Si  tau( 292) = (  -0.2500000   0.1249796   0.1249796  )
       293           Si  tau( 293) = (   0.2500000  -0.3750204  -0.3750204  )
       294           Si  tau( 294) = (   0.2500000  -0.3750204   0.1249796  )
       295           Si  tau( 295) = (   0.2500000   0.1249796  -0.3750204  )
       296           Si  tau( 296) = (   0.2500000   0.1249796   0.1249796  )
       297           C   tau( 297) = (  -0.1874898  -0.3125102  -0.3125102  )
       298           C   tau( 298) = (  -0.1874898  -0.3125102   0.1874898  )
       299           C   tau( 299) = (  -0.1874898   0.1874898  -0.3125102  )
       300           C   tau( 300) = (  -0.1874898   0.1874898   0.1874898  )
       301           C   tau( 301) = (   0.3125102  -0.3125102  -0.3125102  )
       302           C   tau( 302) = (   0.3125102  -0.3125102   0.1874898  )
       303           C   tau( 303) = (   0.3125102   0.1874898  -0.3125102  )
       304           C   tau( 304) = (   0.3125102   0.1874898   0.1874898  )
       305           Si  tau( 305) = (  -0.1249796  -0.5000408  -0.3750204  )
       306           Si  tau( 306) = (  -0.1249796  -0.5000408   0.1249796  )
       307           Si  tau( 307) = (  -0.1249796  -0.0000408  -0.3750204  )
       308           Si  tau( 308) = (  -0.1249796  -0.0000408   0.1249796  )
       309           Si  tau( 309) = (   0.3750204  -0.5000408  -0.3750204  )
       310           Si  tau( 310) = (   0.3750204  -0.5000408   0.1249796  )
       311           Si  tau( 311) = (   0.3750204  -0.0000408  -0.3750204  )
       312           Si  tau( 312) = (   0.3750204  -0.0000408   0.1249796  )
       313           C   tau( 313) = (  -0.0624694  -0.4375306  -0.3125102  )
       314           C   tau( 314) = (  -0.0624694  -0.4375306   0.1874898  )
       315           C   tau( 315) = (  -0.0624694   0.0624694  -0.3125102  )
       316           C   tau( 316) = (  -0.0624694   0.0624694   0.1874898  )
       317           C   tau( 317) = (   0.4375306  -0.4375306  -0.3125102  )
       318           C   tau( 318) = (   0.4375306  -0.4375306   0.1874898  )
       319           C   tau( 319) = (   0.4375306   0.0624694  -0.3125102  )
       320           C   tau( 320) = (   0.4375306   0.0624694   0.1874898  )
       321           Si  tau( 321) = (  -0.2500000  -0.5000408  -0.2500000  )
       322           Si  tau( 322) = (  -0.2500000  -0.5000408   0.2500000  )
       323           Si  tau( 323) = (  -0.2500000  -0.0000408  -0.2500000  )
       324           Si  tau( 324) = (  -0.2500000  -0.0000408   0.2500000  )
       325           Si  tau( 325) = (   0.2500000  -0.5000408  -0.2500000  )
       326           Si  tau( 326) = (   0.2500000  -0.5000408   0.2500000  )
       327           Si  tau( 327) = (   0.2500000  -0.0000408  -0.2500000  )
       328           Si  tau( 328) = (   0.2500000  -0.0000408   0.2500000  )
       329           C   tau( 329) = (  -0.1874898  -0.4375306  -0.1874898  )
       330           C   tau( 330) = (  -0.1874898  -0.4375306   0.3125102  )
       331           C   tau( 331) = (  -0.1874898   0.0624694  -0.1874898  )
       332           C   tau( 332) = (  -0.1874898   0.0624694   0.3125102  )
       333           C   tau( 333) = (   0.3125102  -0.4375306  -0.1874898  )
       334           C   tau( 334) = (   0.3125102  -0.4375306   0.3125102  )
       335           C   tau( 335) = (   0.3125102   0.0624694  -0.1874898  )
       336           C   tau( 336) = (   0.3125102   0.0624694   0.3125102  )
       337           Si  tau( 337) = (  -0.1249796  -0.3750204  -0.2500000  )
       338           Si  tau( 338) = (  -0.1249796  -0.3750204   0.2500000  )
       339           Si  tau( 339) = (  -0.1249796   0.1249796  -0.2500000  )
       340           Si  tau( 340) = (  -0.1249796   0.1249796   0.2500000  )
       341           Si  tau( 341) = (   0.3750204  -0.3750204  -0.2500000  )
       342           Si  tau( 342) = (   0.3750204  -0.3750204   0.2500000  )
       343           Si  tau( 343) = (   0.3750204   0.1249796  -0.2500000  )
       344           Si  tau( 344) = (   0.3750204   0.1249796   0.2500000  )
       345           C   tau( 345) = (  -0.0624694  -0.3125102  -0.1874898  )
       346           C   tau( 346) = (  -0.0624694  -0.3125102   0.3125102  )
       347           C   tau( 347) = (  -0.0624694   0.1874898  -0.1874898  )
       348           C   tau( 348) = (  -0.0624694   0.1874898   0.3125102  )
       349           C   tau( 349) = (   0.4375306  -0.3125102  -0.1874898  )
       350           C   tau( 350) = (   0.4375306  -0.3125102   0.3125102  )
       351           C   tau( 351) = (   0.4375306   0.1874898  -0.1874898  )
       352           C   tau( 352) = (   0.4375306   0.1874898   0.3125102  )
       353           Si  tau( 353) = (  -0.2500000  -0.3750204  -0.1249796  )
       354           Si  tau( 354) = (  -0.2500000  -0.3750204   0.3750204  )
       355           Si  tau( 355) = (  -0.2500000   0.1249796  -0.1249796  )
       356           Si  tau( 356) = (  -0.2500000   0.1249796   0.3750204  )
       357           Si  tau( 357) = (   0.2500000  -0.3750204  -0.1249796  )
       358           Si  tau( 358) = (   0.2500000  -0.3750204   0.3750204  )
       359           Si  tau( 359) = (   0.2500000   0.1249796  -0.1249796  )
       360           Si  tau( 360) = (   0.2500000   0.1249796   0.3750204  )
       361           C   tau( 361) = (  -0.1874898  -0.3125102  -0.0624694  )
       362           C   tau( 362) = (  -0.1874898  -0.3125102   0.4375306  )
       363           C   tau( 363) = (  -0.1874898   0.1874898  -0.0624694  )
       364           C   tau( 364) = (  -0.1874898   0.1874898   0.4375306  )
       365           C   tau( 365) = (   0.3125102  -0.3125102  -0.0624694  )
       366           C   tau( 366) = (   0.3125102  -0.3125102   0.4375306  )
       367           C   tau( 367) = (   0.3125102   0.1874898  -0.0624694  )
       368           C   tau( 368) = (   0.3125102   0.1874898   0.4375306  )
       369           Si  tau( 369) = (  -0.1249796  -0.5000408  -0.1249796  )
       370           Si  tau( 370) = (  -0.1249796  -0.5000408   0.3750204  )
       371           Si  tau( 371) = (  -0.1249796  -0.0000408  -0.1249796  )
       372           Si  tau( 372) = (  -0.1249796  -0.0000408   0.3750204  )
       373           Si  tau( 373) = (   0.3750204  -0.5000408  -0.1249796  )
       374           Si  tau( 374) = (   0.3750204  -0.5000408   0.3750204  )
       375           Si  tau( 375) = (   0.3750204  -0.0000408  -0.1249796  )
       376           Si  tau( 376) = (   0.3750204  -0.0000408   0.3750204  )
       377           C   tau( 377) = (  -0.0624694  -0.4375306  -0.0624694  )
       378           C   tau( 378) = (  -0.0624694  -0.4375306   0.4375306  )
       379           C   tau( 379) = (  -0.0624694   0.0624694  -0.0624694  )
       380           C   tau( 380) = (  -0.0624694   0.0624694   0.4375306  )
       381           C   tau( 381) = (   0.4375306  -0.4375306  -0.0624694  )
       382           C   tau( 382) = (   0.4375306  -0.4375306   0.4375306  )
       383           C   tau( 383) = (   0.4375306   0.0624694  -0.0624694  )
       384           C   tau( 384) = (   0.4375306   0.0624694   0.4375306  )
       385           Si  tau( 385) = (  -0.2500000  -0.2500000  -0.5000408  )
       386           Si  tau( 386) = (  -0.2500000  -0.2500000  -0.0000408  )
       387           Si  tau( 387) = (  -0.2500000   0.2500000  -0.5000408  )
       388           Si  tau( 388) = (  -0.2500000   0.2500000  -0.0000408  )
       389           Si  tau( 389) = (   0.2500000  -0.2500000  -0.5000408  )
       390           Si  tau( 390) = (   0.2500000  -0.2500000  -0.0000408  )
       391           Si  tau( 391) = (   0.2500000   0.2500000  -0.5000408  )
       392           Si  tau( 392) = (   0.2500000   0.2500000  -0.0000408  )
       393           C   tau( 393) = (  -0.1874898  -0.1874898  -0.4375306  )
       394           C   tau( 394) = (  -0.1874898  -0.1874898   0.0624694  )
       395           C   tau( 395) = (  -0.1874898   0.3125102  -0.4375306  )
       396           C   tau( 396) = (  -0.1874898   0.3125102   0.0624694  )
       397           C   tau( 397) = (   0.3125102  -0.1874898  -0.4375306  )
       398           C   tau( 398) = (   0.3125102  -0.1874898   0.0624694  )
       399           C   tau( 399) = (   0.3125102   0.3125102  -0.4375306  )
       400           C   tau( 400) = (   0.3125102   0.3125102   0.0624694  )
       401           Si  tau( 401) = (  -0.1249796  -0.1249796  -0.5000408  )
       402           Si  tau( 402) = (  -0.1249796  -0.1249796  -0.0000408  )
       403           Si  tau( 403) = (  -0.1249796   0.3750204  -0.5000408  )
       404           Si  tau( 404) = (  -0.1249796   0.3750204  -0.0000408  )
       405           Si  tau( 405) = (   0.3750204  -0.1249796  -0.5000408  )
       406           Si  tau( 406) = (   0.3750204  -0.1249796  -0.0000408  )
       407           Si  tau( 407) = (   0.3750204   0.3750204  -0.5000408  )
       408           Si  tau( 408) = (   0.3750204   0.3750204  -0.0000408  )
       409           C   tau( 409) = (  -0.0624694  -0.0624694  -0.4375306  )
       410           C   tau( 410) = (  -0.0624694  -0.0624694   0.0624694  )
       411           C   tau( 411) = (  -0.0624694   0.4375306  -0.4375306  )
       412           C   tau( 412) = (  -0.0624694   0.4375306   0.0624694  )
       413           C   tau( 413) = (   0.4375306  -0.0624694  -0.4375306  )
       414           C   tau( 414) = (   0.4375306  -0.0624694   0.0624694  )
       415           C   tau( 415) = (   0.4375306   0.4375306  -0.4375306  )
       416           C   tau( 416) = (   0.4375306   0.4375306   0.0624694  )
       417           Si  tau( 417) = (  -0.2500000  -0.1249796  -0.3750204  )
       418           Si  tau( 418) = (  -0.2500000  -0.1249796   0.1249796  )
       419           Si  tau( 419) = (  -0.2500000   0.3750204  -0.3750204  )
       420           Si  tau( 420) = (  -0.2500000   0.3750204   0.1249796  )
       421           Si  tau( 421) = (   0.2500000  -0.1249796  -0.3750204  )
       422           Si  tau( 422) = (   0.2500000  -0.1249796   0.1249796  )
       423           Si  tau( 423) = (   0.2500000   0.3750204  -0.3750204  )
       424           Si  tau( 424) = (   0.2500000   0.3750204   0.1249796  )
       425           C   tau( 425) = (  -0.1874898  -0.0624694  -0.3125102  )
       426           C   tau( 426) = (  -0.1874898  -0.0624694   0.1874898  )
       427           C   tau( 427) = (  -0.1874898   0.4375306  -0.3125102  )
       428           C   tau( 428) = (  -0.1874898   0.4375306   0.1874898  )
       429           C   tau( 429) = (   0.3125102  -0.0624694  -0.3125102  )
       430           C   tau( 430) = (   0.3125102  -0.0624694   0.1874898  )
       431           C   tau( 431) = (   0.3125102   0.4375306  -0.3125102  )
       432           C   tau( 432) = (   0.3125102   0.4375306   0.1874898  )
       433           Si  tau( 433) = (  -0.1249796  -0.2500000  -0.3750204  )
       434           Si  tau( 434) = (  -0.1249796  -0.2500000   0.1249796  )
       435           Si  tau( 435) = (  -0.1249796   0.2500000  -0.3750204  )
       436           Si  tau( 436) = (  -0.1249796   0.2500000   0.1249796  )
       437           Si  tau( 437) = (   0.3750204  -0.2500000  -0.3750204  )
       438           Si  tau( 438) = (   0.3750204  -0.2500000   0.1249796  )
       439           Si  tau( 439) = (   0.3750204   0.2500000  -0.3750204  )
       440           Si  tau( 440) = (   0.3750204   0.2500000   0.1249796  )
       441           C   tau( 441) = (  -0.0624694  -0.1874898  -0.3125102  )
       442           C   tau( 442) = (  -0.0624694  -0.1874898   0.1874898  )
       443           C   tau( 443) = (  -0.0624694   0.3125102  -0.3125102  )
       444           C   tau( 444) = (  -0.0624694   0.3125102   0.1874898  )
       445           C   tau( 445) = (   0.4375306  -0.1874898  -0.3125102  )
       446           C   tau( 446) = (   0.4375306  -0.1874898   0.1874898  )
       447           C   tau( 447) = (   0.4375306   0.3125102  -0.3125102  )
       448           C   tau( 448) = (   0.4375306   0.3125102   0.1874898  )
       449           Si  tau( 449) = (  -0.2500000  -0.2500000  -0.2500000  )
       450           Si  tau( 450) = (  -0.2500000  -0.2500000   0.2500000  )
       451           Si  tau( 451) = (  -0.2500000   0.2500000  -0.2500000  )
       452           Si  tau( 452) = (  -0.2500000   0.2500000   0.2500000  )
       453           Si  tau( 453) = (   0.2500000  -0.2500000  -0.2500000  )
       454           Si  tau( 454) = (   0.2500000  -0.2500000   0.2500000  )
       455           Si  tau( 455) = (   0.2500000   0.2500000  -0.2500000  )
       456           Si  tau( 456) = (   0.2500000   0.2500000   0.2500000  )
       457           C   tau( 457) = (  -0.1874898  -0.1874898  -0.1874898  )
       458           C   tau( 458) = (  -0.1874898  -0.1874898   0.3125102  )
       459           C   tau( 459) = (  -0.1874898   0.3125102  -0.1874898  )
       460           C   tau( 460) = (  -0.1874898   0.3125102   0.3125102  )
       461           C   tau( 461) = (   0.3125102  -0.1874898  -0.1874898  )
       462           C   tau( 462) = (   0.3125102  -0.1874898   0.3125102  )
       463           C   tau( 463) = (   0.3125102   0.3125102  -0.1874898  )
       464           C   tau( 464) = (   0.3125102   0.3125102   0.3125102  )
       465           Si  tau( 465) = (  -0.1249796  -0.1249796  -0.2500000  )
       466           Si  tau( 466) = (  -0.1249796  -0.1249796   0.2500000  )
       467           Si  tau( 467) = (  -0.1249796   0.3750204  -0.2500000  )
       468           Si  tau( 468) = (  -0.1249796   0.3750204   0.2500000  )
       469           Si  tau( 469) = (   0.3750204  -0.1249796  -0.2500000  )
       470           Si  tau( 470) = (   0.3750204  -0.1249796   0.2500000  )
       471           Si  tau( 471) = (   0.3750204   0.3750204  -0.2500000  )
       472           Si  tau( 472) = (   0.3750204   0.3750204   0.2500000  )
       473           C   tau( 473) = (  -0.0624694  -0.0624694  -0.1874898  )
       474           C   tau( 474) = (  -0.0624694  -0.0624694   0.3125102  )
       475           C   tau( 475) = (  -0.0624694   0.4375306  -0.1874898  )
       476           C   tau( 476) = (  -0.0624694   0.4375306   0.3125102  )
       477           C   tau( 477) = (   0.4375306  -0.0624694  -0.1874898  )
       478           C   tau( 478) = (   0.4375306  -0.0624694   0.3125102  )
       479           C   tau( 479) = (   0.4375306   0.4375306  -0.1874898  )
       480           C   tau( 480) = (   0.4375306   0.4375306   0.3125102  )
       481           Si  tau( 481) = (  -0.2500000  -0.1249796  -0.1249796  )
       482           Si  tau( 482) = (  -0.2500000  -0.1249796   0.3750204  )
       483           Si  tau( 483) = (  -0.2500000   0.3750204  -0.1249796  )
       484           Si  tau( 484) = (  -0.2500000   0.3750204   0.3750204  )
       485           Si  tau( 485) = (   0.2500000  -0.1249796  -0.1249796  )
       486           Si  tau( 486) = (   0.2500000  -0.1249796   0.3750204  )
       487           Si  tau( 487) = (   0.2500000   0.3750204  -0.1249796  )
       488           Si  tau( 488) = (   0.2500000   0.3750204   0.3750204  )
       489           C   tau( 489) = (  -0.1874898  -0.0624694  -0.0624694  )
       490           C   tau( 490) = (  -0.1874898  -0.0624694   0.4375306  )
       491           C   tau( 491) = (  -0.1874898   0.4375306  -0.0624694  )
       492           C   tau( 492) = (  -0.1874898   0.4375306   0.4375306  )
       493           C   tau( 493) = (   0.3125102  -0.0624694  -0.0624694  )
       494           C   tau( 494) = (   0.3125102  -0.0624694   0.4375306  )
       495           C   tau( 495) = (   0.3125102   0.4375306  -0.0624694  )
       496           C   tau( 496) = (   0.3125102   0.4375306   0.4375306  )
       497           Si  tau( 497) = (  -0.1249796  -0.2500000  -0.1249796  )
       498           Si  tau( 498) = (  -0.1249796  -0.2500000   0.3750204  )
       499           Si  tau( 499) = (  -0.1249796   0.2500000  -0.1249796  )
       500           Si  tau( 500) = (  -0.1249796   0.2500000   0.3750204  )
       501           Si  tau( 501) = (   0.3750204  -0.2500000  -0.1249796  )
       502           Si  tau( 502) = (   0.3750204  -0.2500000   0.3750204  )
       503           Si  tau( 503) = (   0.3750204   0.2500000  -0.1249796  )
       504           Si  tau( 504) = (   0.3750204   0.2500000   0.3750204  )
       505           C   tau( 505) = (  -0.0624694  -0.1874898  -0.0624694  )
       506           C   tau( 506) = (  -0.0624694  -0.1874898   0.4375306  )
       507           C   tau( 507) = (  -0.0624694   0.3125102  -0.0624694  )
       508           C   tau( 508) = (  -0.0624694   0.3125102   0.4375306  )
       509           C   tau( 509) = (   0.4375306  -0.1874898  -0.0624694  )
       510           C   tau( 510) = (   0.4375306  -0.1874898   0.4375306  )
       511           C   tau( 511) = (   0.4375306   0.3125102  -0.0624694  )
       512           C   tau( 512) = (   0.4375306   0.3125102   0.4375306  )

   Crystallographic axes

     site n.     atom                  positions (cryst. coord.)
         1           Si  tau(   1) = ( -0.5000408 -0.5000408 -0.5000408  )
         2           Si  tau(   2) = ( -0.5000408 -0.5000408 -0.0000408  )
         3           Si  tau(   3) = ( -0.5000408 -0.0000408 -0.5000408  )
         4           Si  tau(   4) = ( -0.5000408 -0.0000408 -0.0000408  )
         5           Si  tau(   5) = ( -0.0000408 -0.5000408 -0.5000408  )
         6           Si  tau(   6) = ( -0.0000408 -0.5000408 -0.0000408  )
         7           Si  tau(   7) = ( -0.0000408 -0.0000408 -0.5000408  )
         8           Si  tau(   8) = ( -0.0000408 -0.0000408 -0.0000408  )
         9           C   tau(   9) = ( -0.4375306 -0.4375306 -0.4375306  )
        10           C   tau(  10) = ( -0.4375306 -0.4375306  0.0624694  )
        11           C   tau(  11) = ( -0.4375306  0.0624694 -0.4375306  )
        12           C   tau(  12) = ( -0.4375306  0.0624694  0.0624694  )
        13           C   tau(  13) = (  0.0624694 -0.4375306 -0.4375306  )
        14           C   tau(  14) = (  0.0624694 -0.4375306  0.0624694  )
        15           C   tau(  15) = (  0.0624694  0.0624694 -0.4375306  )
        16           C   tau(  16) = (  0.0624694  0.0624694  0.0624694  )
        17           Si  tau(  17) = ( -0.3750204 -0.3750204 -0.5000408  )
        18           Si  tau(  18) = ( -0.3750204 -0.3750204 -0.0000408  )
        19           Si  tau(  19) = ( -0.3750204  0.1249796 -0.5000408  )
        20           Si  tau(  20) = ( -0.3750204  0.1249796 -0.0000408  )
        21           Si  tau(  21) = (  0.1249796 -0.3750204 -0.5000408  )
        22           Si  tau(  22) = (  0.1249796 -0.3750204 -0.0000408  )
        23           Si  tau(  23) = (  0.1249796  0.1249796 -0.5000408  )
        24           Si  tau(  24) = (  0.1249796  0.1249796 -0.0000408  )
        25           C   tau(  25) = ( -0.3125102 -0.3125102 -0.4375306  )
        26           C   tau(  26) = ( -0.3125102 -0.3125102  0.0624694  )
        27           C   tau(  27) = ( -0.3125102  0.1874898 -0.4375306  )
        28           C   tau(  28) = ( -0.3125102  0.1874898  0.0624694  )
        29           C   tau(  29) = (  0.1874898 -0.3125102 -0.4375306  )
        30           C   tau(  30) = (  0.1874898 -0.3125102  0.0624694  )
        31           C   tau(  31) = (  0.1874898  0.1874898 -0.4375306  )
        32           C   tau(  32) = (  0.1874898  0.1874898  0.0624694  )
        33           Si  tau(  33) = ( -0.5000408 -0.3750204 -0.3750204  )
        34           Si  tau(  34) = ( -0.5000408 -0.3750204  0.1249796  )
        35           Si  tau(  35) = ( -0.5000408  0.1249796 -0.3750204  )
        36           Si  tau(  36) = ( -0.5000408  0.1249796  0.1249796  )
        37           Si  tau(  37) = ( -0.0000408 -0.3750204 -0.3750204  )
        38           Si  tau(  38) = ( -0.0000408 -0.3750204  0.1249796  )
        39           Si  tau(  39) = ( -0.0000408  0.1249796 -0.3750204  )
        40           Si  tau(  40) = ( -0.0000408  0.1249796  0.1249796  )
        41           C   tau(  41) = ( -0.4375306 -0.3125102 -0.3125102  )
        42           C   tau(  42) = ( -0.4375306 -0.3125102  0.1874898  )
        43           C   tau(  43) = ( -0.4375306  0.1874898 -0.3125102  )
        44           C   tau(  44) = ( -0.4375306  0.1874898  0.1874898  )
        45           C   tau(  45) = (  0.0624694 -0.3125102 -0.3125102  )
        46           C   tau(  46) = (  0.0624694 -0.3125102  0.1874898  )
        47           C   tau(  47) = (  0.0624694  0.1874898 -0.3125102  )
        48           C   tau(  48) = (  0.0624694  0.1874898  0.1874898  )
        49           Si  tau(  49) = ( -0.3750204 -0.5000408 -0.3750204  )
        50           Si  tau(  50) = ( -0.3750204 -0.5000408  0.1249796  )
        51           Si  tau(  51) = ( -0.3750204 -0.0000408 -0.3750204  )
        52           Si  tau(  52) = ( -0.3750204 -0.0000408  0.1249796  )
        53           Si  tau(  53) = (  0.1249796 -0.5000408 -0.3750204  )
        54           Si  tau(  54) = (  0.1249796 -0.5000408  0.1249796  )
        55           Si  tau(  55) = (  0.1249796 -0.0000408 -0.3750204  )
        56           Si  tau(  56) = (  0.1249796 -0.0000408  0.1249796  )
        57           C   tau(  57) = ( -0.3125102 -0.4375306 -0.3125102  )
        58           C   tau(  58) = ( -0.3125102 -0.4375306  0.1874898  )
        59           C   tau(  59) = ( -0.3125102  0.0624694 -0.3125102  )
        60           C   tau(  60) = ( -0.3125102  0.0624694  0.1874898  )
        61           C   tau(  61) = (  0.1874898 -0.4375306 -0.3125102  )
        62           C   tau(  62) = (  0.1874898 -0.4375306  0.1874898  )
        63           C   tau(  63) = (  0.1874898  0.0624694 -0.3125102  )
        64           C   tau(  64) = (  0.1874898  0.0624694  0.1874898  )
        65           Si  tau(  65) = ( -0.5000408 -0.5000408 -0.2500000  )
        66           Si  tau(  66) = ( -0.5000408 -0.5000408  0.2500000  )
        67           Si  tau(  67) = ( -0.5000408 -0.0000408 -0.2500000  )
        68           Si  tau(  68) = ( -0.5000408 -0.0000408  0.2500000  )
        69           Si  tau(  69) = ( -0.0000408 -0.5000408 -0.2500000  )
        70           Si  tau(  70) = ( -0.0000408 -0.5000408  0.2500000  )
        71           Si  tau(  71) = ( -0.0000408 -0.0000408 -0.2500000  )
        72           Si  tau(  72) = ( -0.0000408 -0.0000408  0.2500000  )
        73           C   tau(  73) = ( -0.4375306 -0.4375306 -0.1874898  )
        74           C   tau(  74) = ( -0.4375306 -0.4375306  0.3125102  )
        75           C   tau(  75) = ( -0.4375306  0.0624694 -0.1874898  )
        76           C   tau(  76) = ( -0.4375306  0.0624694  0.3125102  )
        77           C   tau(  77) = (  0.0624694 -0.4375306 -0.1874898  )
        78           C   tau(  78) = (  0.0624694 -0.4375306  0.3125102  )
        79           C   tau(  79) = (  0.0624694  0.0624694 -0.1874898  )
        80           C   tau(  80) = (  0.0624694  0.0624694  0.3125102  )
        81           Si  tau(  81) = ( -0.3750204 -0.3750204 -0.2500000  )
        82           Si  tau(  82) = ( -0.3750204 -0.3750204  0.2500000  )
        83           Si  tau(  83) = ( -0.3750204  0.1249796 -0.2500000  )
        84           Si  tau(  84) = ( -0.3750204  0.1249796  0.2500000  )
        85           Si  tau(  85) = (  0.1249796 -0.3750204 -0.2500000  )
        86           Si  tau(  86) = (  0.1249796 -0.3750204  0.2500000  )
        87           Si  tau(  87) = (  0.1249796  0.1249796 -0.2500000  )
        88           Si  tau(  88) = (  0.1249796  0.1249796  0.2500000  )
        89           C   tau(  89) = ( -0.3125102 -0.3125102 -0.1874898  )
        90           C   tau(  90) = ( -0.3125102 -0.3125102  0.3125102  )
        91           C   tau(  91) = ( -0.3125102  0.1874898 -0.1874898  )
        92           C   tau(  92) = ( -0.3125102  0.1874898  0.3125102  )
        93           C   tau(  93) = (  0.1874898 -0.3125102 -0.1874898  )
        94           C   tau(  94) = (  0.1874898 -0.3125102  0.3125102  )
        95           C   tau(  95) = (  0.1874898  0.1874898 -0.1874898  )
        96           C   tau(  96) = (  0.1874898  0.1874898  0.3125102  )
        97           Si  tau(  97) = ( -0.5000408 -0.3750204 -0.1249796  )
        98           Si  tau(  98) = ( -0.5000408 -0.3750204  0.3750204  )
        99           Si  tau(  99) = ( -0.5000408  0.1249796 -0.1249796  )
       100           Si  tau( 100) = ( -0.5000408  0.1249796  0.3750204  )
       101           Si  tau( 101) = ( -0.0000408 -0.3750204 -0.1249796  )
       102           Si  tau( 102) = ( -0.0000408 -0.3750204  0.3750204  )
       103           Si  tau( 103) = ( -0.0000408  0.1249796 -0.1249796  )
       104           Si  tau( 104) = ( -0.0000408  0.1249796  0.3750204  )
       105           C   tau( 105) = ( -0.4375306 -0.3125102 -0.0624694  )
       106           C   tau( 106) = ( -0.4375306 -0.3125102  0.4375306  )
       107           C   tau( 107) = ( -0.4375306  0.1874898 -0.0624694  )
       108           C   tau( 108) = ( -0.4375306  0.1874898  0.4375306  )
       109           C   tau( 109) = (  0.0624694 -0.3125102 -0.0624694  )
       110           C   tau( 110) = (  0.0624694 -0.3125102  0.4375306  )
       111           C   tau( 111) = (  0.0624694  0.1874898 -0.0624694  )
       112           C   tau( 112) = (  0.0624694  0.1874898  0.4375306  )
       113           Si  tau( 113) = ( -0.3750204 -0.5000408 -0.1249796  )
       114           Si  tau( 114) = ( -0.3750204 -0.5000408  0.3750204  )
       115           Si  tau( 115) = ( -0.3750204 -0.0000408 -0.1249796  )
       116           Si  tau( 116) = ( -0.3750204 -0.0000408  0.3750204  )
       117           Si  tau( 117) = (  0.1249796 -0.5000408 -0.1249796  )
       118           Si  tau( 118) = (  0.1249796 -0.5000408  0.3750204  )
       119           Si  tau( 119) = (  0.1249796 -0.0000408 -0.1249796  )
       120           Si  tau( 120) = (  0.1249796 -0.0000408  0.3750204  )
       121           C   tau( 121) = ( -0.3125102 -0.4375306 -0.0624694  )
       122           C   tau( 122) = ( -0.3125102 -0.4375306  0.4375306  )
       123           C   tau( 123) = ( -0.3125102  0.0624694 -0.0624694  )
       124           C   tau( 124) = ( -0.3125102  0.0624694  0.4375306  )
       125           C   tau( 125) = (  0.1874898 -0.4375306 -0.0624694  )
       126           C   tau( 126) = (  0.1874898 -0.4375306  0.4375306  )
       127           C   tau( 127) = (  0.1874898  0.0624694 -0.0624694  )
       128           C   tau( 128) = (  0.1874898  0.0624694  0.4375306  )
       129           Si  tau( 129) = ( -0.5000408 -0.2500000 -0.5000408  )
       130           Si  tau( 130) = ( -0.5000408 -0.2500000 -0.0000408  )
       131           Si  tau( 131) = ( -0.5000408  0.2500000 -0.5000408  )
       132           Si  tau( 132) = ( -0.5000408  0.2500000 -0.0000408  )
       133           Si  tau( 133) = ( -0.0000408 -0.2500000 -0.5000408  )
       134           Si  tau( 134) = ( -0.0000408 -0.2500000 -0.0000408  )
       135           Si  tau( 135) = ( -0.0000408  0.2500000 -0.5000408  )
       136           Si  tau( 136) = ( -0.0000408  0.2500000 -0.0000408  )
       137           C   tau( 137) = ( -0.4375306 -0.1874898 -0.4375306  )
       138           C   tau( 138) = ( -0.4375306 -0.1874898  0.0624694  )
       139           C   tau( 139) = ( -0.4375306  0.3125102 -0.4375306  )
       140           C   tau( 140) = ( -0.4375306  0.3125102  0.0624694  )
       141           C   tau( 141) = (  0.0624694 -0.1874898 -0.4375306  )
       142           C   tau( 142) = (  0.0624694 -0.1874898  0.0624694  )
       143           C   tau( 143) = (  0.0624694  0.3125102 -0.4375306  )
       144           C   tau( 144) = (  0.0624694  0.3125102  0.0624694  )
       145           Si  tau( 145) = ( -0.3750204 -0.1249796 -0.5000408  )
       146           Si  tau( 146) = ( -0.3750204 -0.1249796 -0.0000408  )
       147           Si  tau( 147) = ( -0.3750204  0.3750204 -0.5000408  )
       148           Si  tau( 148) = ( -0.3750204  0.3750204 -0.0000408  )
       149           Si  tau( 149) = (  0.1249796 -0.1249796 -0.5000408  )
       150           Si  tau( 150) = (  0.1249796 -0.1249796 -0.0000408  )
       151           Si  tau( 151) = (  0.1249796  0.3750204 -0.5000408  )
       152           Si  tau( 152) = (  0.1249796  0.3750204 -0.0000408  )
       153           C   tau( 153) = ( -0.3125102 -0.0624694 -0.4375306  )
       154           C   tau( 154) = ( -0.3125102 -0.0624694  0.0624694  )
       155           C   tau( 155) = ( -0.3125102  0.4375306 -0.4375306  )
       156           C   tau( 156) = ( -0.3125102  0.4375306  0.0624694  )
       157           C   tau( 157) = (  0.1874898 -0.0624694 -0.4375306  )
       158           C   tau( 158) = (  0.1874898 -0.0624694  0.0624694  )
       159           C   tau( 159) = (  0.1874898  0.4375306 -0.4375306  )
       160           C   tau( 160) = (  0.1874898  0.4375306  0.0624694  )
       161           Si  tau( 161) = ( -0.5000408 -0.1249796 -0.3750204  )
       162           Si  tau( 162) = ( -0.5000408 -0.1249796  0.1249796  )
       163           Si  tau( 163) = ( -0.5000408  0.3750204 -0.3750204  )
       164           Si  tau( 164) = ( -0.5000408  0.3750204  0.1249796  )
       165           Si  tau( 165) = ( -0.0000408 -0.1249796 -0.3750204  )
       166           Si  tau( 166) = ( -0.0000408 -0.1249796  0.1249796  )
       167           Si  tau( 167) = ( -0.0000408  0.3750204 -0.3750204  )
       168           Si  tau( 168) = ( -0.0000408  0.3750204  0.1249796  )
       169           C   tau( 169) = ( -0.4375306 -0.0624694 -0.3125102  )
       170           C   tau( 170) = ( -0.4375306 -0.0624694  0.1874898  )
       171           C   tau( 171) = ( -0.4375306  0.4375306 -0.3125102  )
       172           C   tau( 172) = ( -0.4375306  0.4375306  0.1874898  )
       173           C   tau( 173) = (  0.0624694 -0.0624694 -0.3125102  )
       174           C   tau( 174) = (  0.0624694 -0.0624694  0.1874898  )
       175           C   tau( 175) = (  0.0624694  0.4375306 -0.3125102  )
       176           C   tau( 176) = (  0.0624694  0.4375306  0.1874898  )
       177           Si  tau( 177) = ( -0.3750204 -0.2500000 -0.3750204  )
       178           Si  tau( 178) = ( -0.3750204 -0.2500000  0.1249796  )
       179           Si  tau( 179) = ( -0.3750204  0.2500000 -0.3750204  )
       180           Si  tau( 180) = ( -0.3750204  0.2500000  0.1249796  )
       181           Si  tau( 181) = (  0.1249796 -0.2500000 -0.3750204  )
       182           Si  tau( 182) = (  0.1249796 -0.2500000  0.1249796  )
       183           Si  tau( 183) = (  0.1249796  0.2500000 -0.3750204  )
       184           Si  tau( 184) = (  0.1249796  0.2500000  0.1249796  )
       185           C   tau( 185) = ( -0.3125102 -0.1874898 -0.3125102  )
       186           C   tau( 186) = ( -0.3125102 -0.1874898  0.1874898  )
       187           C   tau( 187) = ( -0.3125102  0.3125102 -0.3125102  )
       188           C   tau( 188) = ( -0.3125102  0.3125102  0.1874898  )
       189           C   tau( 189) = (  0.1874898 -0.1874898 -0.3125102  )
       190           C   tau( 190) = (  0.1874898 -0.1874898  0.1874898  )
       191           C   tau( 191) = (  0.1874898  0.3125102 -0.3125102  )
       192           C   tau( 192) = (  0.1874898  0.3125102  0.1874898  )
       193           Si  tau( 193) = ( -0.5000408 -0.2500000 -0.2500000  )
       194           Si  tau( 194) = ( -0.5000408 -0.2500000  0.2500000  )
       195           Si  tau( 195) = ( -0.5000408  0.2500000 -0.2500000  )
       196           Si  tau( 196) = ( -0.5000408  0.2500000  0.2500000  )
       197           Si  tau( 197) = ( -0.0000408 -0.2500000 -0.2500000  )
       198           Si  tau( 198) = ( -0.0000408 -0.2500000  0.2500000  )
       199           Si  tau( 199) = ( -0.0000408  0.2500000 -0.2500000  )
       200           Si  tau( 200) = ( -0.0000408  0.2500000  0.2500000  )
       201           C   tau( 201) = ( -0.4375306 -0.1874898 -0.1874898  )
       202           C   tau( 202) = ( -0.4375306 -0.1874898  0.3125102  )
       203           C   tau( 203) = ( -0.4375306  0.3125102 -0.1874898  )
       204           C   tau( 204) = ( -0.4375306  0.3125102  0.3125102  )
       205           C   tau( 205) = (  0.0624694 -0.1874898 -0.1874898  )
       206           C   tau( 206) = (  0.0624694 -0.1874898  0.3125102  )
       207           C   tau( 207) = (  0.0624694  0.3125102 -0.1874898  )
       208           C   tau( 208) = (  0.0624694  0.3125102  0.3125102  )
       209           Si  tau( 209) = ( -0.3750204 -0.1249796 -0.2500000  )
       210           Si  tau( 210) = ( -0.3750204 -0.1249796  0.2500000  )
       211           Si  tau( 211) = ( -0.3750204  0.3750204 -0.2500000  )
       212           Si  tau( 212) = ( -0.3750204  0.3750204  0.2500000  )
       213           Si  tau( 213) = (  0.1249796 -0.1249796 -0.2500000  )
       214           Si  tau( 214) = (  0.1249796 -0.1249796  0.2500000  )
       215           Si  tau( 215) = (  0.1249796  0.3750204 -0.2500000  )
       216           Si  tau( 216) = (  0.1249796  0.3750204  0.2500000  )
       217           C   tau( 217) = ( -0.3125102 -0.0624694 -0.1874898  )
       218           C   tau( 218) = ( -0.3125102 -0.0624694  0.3125102  )
       219           C   tau( 219) = ( -0.3125102  0.4375306 -0.1874898  )
       220           C   tau( 220) = ( -0.3125102  0.4375306  0.3125102  )
       221           C   tau( 221) = (  0.1874898 -0.0624694 -0.1874898  )
       222           C   tau( 222) = (  0.1874898 -0.0624694  0.3125102  )
       223           C   tau( 223) = (  0.1874898  0.4375306 -0.1874898  )
       224           C   tau( 224) = (  0.1874898  0.4375306  0.3125102  )
       225           Si  tau( 225) = ( -0.5000408 -0.1249796 -0.1249796  )
       226           Si  tau( 226) = ( -0.5000408 -0.1249796  0.3750204  )
       227           Si  tau( 227) = ( -0.5000408  0.3750204 -0.1249796  )
       228           Si  tau( 228) = ( -0.5000408  0.3750204  0.3750204  )
       229           Si  tau( 229) = ( -0.0000408 -0.1249796 -0.1249796  )
       230           Si  tau( 230) = ( -0.0000408 -0.1249796  0.3750204  )
       231           Si  tau( 231) = ( -0.0000408  0.3750204 -0.1249796  )
       232           Si  tau( 232) = ( -0.0000408  0.3750204  0.3750204  )
       233           C   tau( 233) = ( -0.4375306 -0.0624694 -0.0624694  )
       234           C   tau( 234) = ( -0.4375306 -0.0624694  0.4375306  )
       235           C   tau( 235) = ( -0.4375306  0.4375306 -0.0624694  )
       236           C   tau( 236) = ( -0.4375306  0.4375306  0.4375306  )
       237           C   tau( 237) = (  0.0624694 -0.0624694 -0.0624694  )
       238           C   tau( 238) = (  0.0624694 -0.0624694  0.4375306  )
       239           C   tau( 239) = (  0.0624694  0.4375306 -0.0624694  )
       240           C   tau( 240) = (  0.0624694  0.4375306  0.4375306  )
       241           Si  tau( 241) = ( -0.3750204 -0.2500000 -0.1249796  )
       242           Si  tau( 242) = ( -0.3750204 -0.2500000  0.3750204  )
       243           Si  tau( 243) = ( -0.3750204  0.2500000 -0.1249796  )
       244           Si  tau( 244) = ( -0.3750204  0.2500000  0.3750204  )
       245           Si  tau( 245) = (  0.1249796 -0.2500000 -0.1249796  )
       246           Si  tau( 246) = (  0.1249796 -0.2500000  0.3750204  )
       247           Si  tau( 247) = (  0.1249796  0.2500000 -0.1249796  )
       248           Si  tau( 248) = (  0.1249796  0.2500000  0.3750204  )
       249           C   tau( 249) = ( -0.3125102 -0.1874898 -0.0624694  )
       250           C   tau( 250) = ( -0.3125102 -0.1874898  0.4375306  )
       251           C   tau( 251) = ( -0.3125102  0.3125102 -0.0624694  )
       252           C   tau( 252) = ( -0.3125102  0.3125102  0.4375306  )
       253           C   tau( 253) = (  0.1874898 -0.1874898 -0.0624694  )
       254           C   tau( 254) = (  0.1874898 -0.1874898  0.4375306  )
       255           C   tau( 255) = (  0.1874898  0.3125102 -0.0624694  )
       256           C   tau( 256) = (  0.1874898  0.3125102  0.4375306  )
       257           Si  tau( 257) = ( -0.2500000 -0.5000408 -0.5000408  )
       258           Si  tau( 258) = ( -0.2500000 -0.5000408 -0.0000408  )
       259           Si  tau( 259) = ( -0.2500000 -0.0000408 -0.5000408  )
       260           Si  tau( 260) = ( -0.2500000 -0.0000408 -0.0000408  )
       261           Si  tau( 261) = (  0.2500000 -0.5000408 -0.5000408  )
       262           Si  tau( 262) = (  0.2500000 -0.5000408 -0.0000408  )
       263           Si  tau( 263) = (  0.2500000 -0.0000408 -0.5000408  )
       264           Si  tau( 264) = (  0.2500000 -0.0000408 -0.0000408  )
       265           C   tau( 265) = ( -0.1874898 -0.4375306 -0.4375306  )
       266           C   tau( 266) = ( -0.1874898 -0.4375306  0.0624694  )
       267           C   tau( 267) = ( -0.1874898  0.0624694 -0.4375306  )
       268           C   tau( 268) = ( -0.1874898  0.0624694  0.0624694  )
       269           C   tau( 269) = (  0.3125102 -0.4375306 -0.4375306  )
       270           C   tau( 270) = (  0.3125102 -0.4375306  0.0624694  )
       271           C   tau( 271) = (  0.3125102  0.0624694 -0.4375306  )
       272           C   tau( 272) = (  0.3125102  0.0624694  0.0624694  )
       273           Si  tau( 273) = ( -0.1249796 -0.3750204 -0.5000408  )
       274           Si  tau( 274) = ( -0.1249796 -0.3750204 -0.0000408  )
       275           Si  tau( 275) = ( -0.1249796  0.1249796 -0.5000408  )
       276           Si  tau( 276) = ( -0.1249796  0.1249796 -0.0000408  )
       277           Si  tau( 277) = (  0.3750204 -0.3750204 -0.5000408  )
       278           Si  tau( 278) = (  0.3750204 -0.3750204 -0.0000408  )
       279           Si  tau( 279) = (  0.3750204  0.1249796 -0.5000408  )
       280           Si  tau( 280) = (  0.3750204  0.1249796 -0.0000408  )
       281           C   tau( 281) = ( -0.0624694 -0.3125102 -0.4375306  )
       282           C   tau( 282) = ( -0.0624694 -0.3125102  0.0624694  )
       283           C   tau( 283) = ( -0.0624694  0.1874898 -0.4375306  )
       284           C   tau( 284) = ( -0.0624694  0.1874898  0.0624694  )
       285           C   tau( 285) = (  0.4375306 -0.3125102 -0.4375306  )
       286           C   tau( 286) = (  0.4375306 -0.3125102  0.0624694  )
       287           C   tau( 287) = (  0.4375306  0.1874898 -0.4375306  )
       288           C   tau( 288) = (  0.4375306  0.1874898  0.0624694  )
       289           Si  tau( 289) = ( -0.2500000 -0.3750204 -0.3750204  )
       290           Si  tau( 290) = ( -0.2500000 -0.3750204  0.1249796  )
       291           Si  tau( 291) = ( -0.2500000  0.1249796 -0.3750204  )
       292           Si  tau( 292) = ( -0.2500000  0.1249796  0.1249796  )
       293           Si  tau( 293) = (  0.2500000 -0.3750204 -0.3750204  )
       294           Si  tau( 294) = (  0.2500000 -0.3750204  0.1249796  )
       295           Si  tau( 295) = (  0.2500000  0.1249796 -0.3750204  )
       296           Si  tau( 296) = (  0.2500000  0.1249796  0.1249796  )
       297           C   tau( 297) = ( -0.1874898 -0.3125102 -0.3125102  )
       298           C   tau( 298) = ( -0.1874898 -0.3125102  0.1874898  )
       299           C   tau( 299) = ( -0.1874898  0.1874898 -0.3125102  )
       300           C   tau( 300) = ( -0.1874898  0.1874898  0.1874898  )
       301           C   tau( 301) = (  0.3125102 -0.3125102 -0.3125102  )
       302           C   tau( 302) = (  0.3125102 -0.3125102  0.1874898  )
       303           C   tau( 303) = (  0.3125102  0.1874898 -0.3125102  )
       304           C   tau( 304) = (  0.3125102  0.1874898  0.1874898  )
       305           Si  tau( 305) = ( -0.1249796 -0.5000408 -0.3750204  )
       306           Si  tau( 306) = ( -0.1249796 -0.5000408  0.1249796  )
       307           Si  tau( 307) = ( -0.1249796 -0.0000408 -0.3750204  )
       308           Si  tau( 308) = ( -0.1249796 -0.0000408  0.1249796  )
       309           Si  tau( 309) = (  0.3750204 -0.5000408 -0.3750204  )
       310           Si  tau( 310) = (  0.3750204 -0.5000408  0.1249796  )
       311           Si  tau( 311) = (  0.3750204 -0.0000408 -0.3750204  )
       312           Si  tau( 312) = (  0.3750204 -0.0000408  0.1249796  )
       313           C   tau( 313) = ( -0.0624694 -0.4375306 -0.3125102  )
       314           C   tau( 314) = ( -0.0624694 -0.4375306  0.1874898  )
       315           C   tau( 315) = ( -0.0624694  0.0624694 -0.3125102  )
       316           C   tau( 316) = ( -0.0624694  0.0624694  0.1874898  )
       317           C   tau( 317) = (  0.4375306 -0.4375306 -0.3125102  )
       318           C   tau( 318) = (  0.4375306 -0.4375306  0.1874898  )
       319           C   tau( 319) = (  0.4375306  0.0624694 -0.3125102  )
       320           C   tau( 320) = (  0.4375306  0.0624694  0.1874898  )
       321           Si  tau( 321) = ( -0.2500000 -0.5000408 -0.2500000  )
       322           Si  tau( 322) = ( -0.2500000 -0.5000408  0.2500000  )
       323           Si  tau( 323) = ( -0.2500000 -0.0000408 -0.2500000  )
       324           Si  tau( 324) = ( -0.2500000 -0.0000408  0.2500000  )
       325           Si  tau( 325) = (  0.2500000 -0.5000408 -0.2500000  )
       326           Si  tau( 326) = (  0.2500000 -0.5000408  0.2500000  )
       327           Si  tau( 327) = (  0.2500000 -0.0000408 -0.2500000  )
       328           Si  tau( 328) = (  0.2500000 -0.0000408  0.2500000  )
       329           C   tau( 329) = ( -0.1874898 -0.4375306 -0.1874898  )
       330           C   tau( 330) = ( -0.1874898 -0.4375306  0.3125102  )
       331           C   tau( 331) = ( -0.1874898  0.0624694 -0.1874898  )
       332           C   tau( 332) = ( -0.1874898  0.0624694  0.3125102  )
       333           C   tau( 333) = (  0.3125102 -0.4375306 -0.1874898  )
       334           C   tau( 334) = (  0.3125102 -0.4375306  0.3125102  )
       335           C   tau( 335) = (  0.3125102  0.0624694 -0.1874898  )
       336           C   tau( 336) = (  0.3125102  0.0624694  0.3125102  )
       337           Si  tau( 337) = ( -0.1249796 -0.3750204 -0.2500000  )
       338           Si  tau( 338) = ( -0.1249796 -0.3750204  0.2500000  )
       339           Si  tau( 339) = ( -0.1249796  0.1249796 -0.2500000  )
       340           Si  tau( 340) = ( -0.1249796  0.1249796  0.2500000  )
       341           Si  tau( 341) = (  0.3750204 -0.3750204 -0.2500000  )
       342           Si  tau( 342) = (  0.3750204 -0.3750204  0.2500000  )
       343           Si  tau( 343) = (  0.3750204  0.1249796 -0.2500000  )
       344           Si  tau( 344) = (  0.3750204  0.1249796  0.2500000  )
       345           C   tau( 345) = ( -0.0624694 -0.3125102 -0.1874898  )
       346           C   tau( 346) = ( -0.0624694 -0.3125102  0.3125102  )
       347           C   tau( 347) = ( -0.0624694  0.1874898 -0.1874898  )
       348           C   tau( 348) = ( -0.0624694  0.1874898  0.3125102  )
       349           C   tau( 349) = (  0.4375306 -0.3125102 -0.1874898  )
       350           C   tau( 350) = (  0.4375306 -0.3125102  0.3125102  )
       351           C   tau( 351) = (  0.4375306  0.1874898 -0.1874898  )
       352           C   tau( 352) = (  0.4375306  0.1874898  0.3125102  )
       353           Si  tau( 353) = ( -0.2500000 -0.3750204 -0.1249796  )
       354           Si  tau( 354) = ( -0.2500000 -0.3750204  0.3750204  )
       355           Si  tau( 355) = ( -0.2500000  0.1249796 -0.1249796  )
       356           Si  tau( 356) = ( -0.2500000  0.1249796  0.3750204  )
       357           Si  tau( 357) = (  0.2500000 -0.3750204 -0.1249796  )
       358           Si  tau( 358) = (  0.2500000 -0.3750204  0.3750204  )
       359           Si  tau( 359) = (  0.2500000  0.1249796 -0.1249796  )
       360           Si  tau( 360) = (  0.2500000  0.1249796  0.3750204  )
       361           C   tau( 361) = ( -0.1874898 -0.3125102 -0.0624694  )
       362           C   tau( 362) = ( -0.1874898 -0.3125102  0.4375306  )
       363           C   tau( 363) = ( -0.1874898  0.1874898 -0.0624694  )
       364           C   tau( 364) = ( -0.1874898  0.1874898  0.4375306  )
       365           C   tau( 365) = (  0.3125102 -0.3125102 -0.0624694  )
       366           C   tau( 366) = (  0.3125102 -0.3125102  0.4375306  )
       367           C   tau( 367) = (  0.3125102  0.1874898 -0.0624694  )
       368           C   tau( 368) = (  0.3125102  0.1874898  0.4375306  )
       369           Si  tau( 369) = ( -0.1249796 -0.5000408 -0.1249796  )
       370           Si  tau( 370) = ( -0.1249796 -0.5000408  0.3750204  )
       371           Si  tau( 371) = ( -0.1249796 -0.0000408 -0.1249796  )
       372           Si  tau( 372) = ( -0.1249796 -0.0000408  0.3750204  )
       373           Si  tau( 373) = (  0.3750204 -0.5000408 -0.1249796  )
       374           Si  tau( 374) = (  0.3750204 -0.5000408  0.3750204  )
       375           Si  tau( 375) = (  0.3750204 -0.0000408 -0.1249796  )
       376           Si  tau( 376) = (  0.3750204 -0.0000408  0.3750204  )
       377           C   tau( 377) = ( -0.0624694 -0.4375306 -0.0624694  )
       378           C   tau( 378) = ( -0.0624694 -0.4375306  0.4375306  )
       379           C   tau( 379) = ( -0.0624694  0.0624694 -0.0624694  )
       380           C   tau( 380) = ( -0.0624694  0.0624694  0.4375306  )
       381           C   tau( 381) = (  0.4375306 -0.4375306 -0.0624694  )
       382           C   tau( 382) = (  0.4375306 -0.4375306  0.4375306  )
       383           C   tau( 383) = (  0.4375306  0.0624694 -0.0624694  )
       384           C   tau( 384) = (  0.4375306  0.0624694  0.4375306  )
       385           Si  tau( 385) = ( -0.2500000 -0.2500000 -0.5000408  )
       386           Si  tau( 386) = ( -0.2500000 -0.2500000 -0.0000408  )
       387           Si  tau( 387) = ( -0.2500000  0.2500000 -0.5000408  )
       388           Si  tau( 388) = ( -0.2500000  0.2500000 -0.0000408  )
       389           Si  tau( 389) = (  0.2500000 -0.2500000 -0.5000408  )
       390           Si  tau( 390) = (  0.2500000 -0.2500000 -0.0000408  )
       391           Si  tau( 391) = (  0.2500000  0.2500000 -0.5000408  )
       392           Si  tau( 392) = (  0.2500000  0.2500000 -0.0000408  )
       393           C   tau( 393) = ( -0.1874898 -0.1874898 -0.4375306  )
       394           C   tau( 394) = ( -0.1874898 -0.1874898  0.0624694  )
       395           C   tau( 395) = ( -0.1874898  0.3125102 -0.4375306  )
       396           C   tau( 396) = ( -0.1874898  0.3125102  0.0624694  )
       397           C   tau( 397) = (  0.3125102 -0.1874898 -0.4375306  )
       398           C   tau( 398) = (  0.3125102 -0.1874898  0.0624694  )
       399           C   tau( 399) = (  0.3125102  0.3125102 -0.4375306  )
       400           C   tau( 400) = (  0.3125102  0.3125102  0.0624694  )
       401           Si  tau( 401) = ( -0.1249796 -0.1249796 -0.5000408  )
       402           Si  tau( 402) = ( -0.1249796 -0.1249796 -0.0000408  )
       403           Si  tau( 403) = ( -0.1249796  0.3750204 -0.5000408  )
       404           Si  tau( 404) = ( -0.1249796  0.3750204 -0.0000408  )
       405           Si  tau( 405) = (  0.3750204 -0.1249796 -0.5000408  )
       406           Si  tau( 406) = (  0.3750204 -0.1249796 -0.0000408  )
       407           Si  tau( 407) = (  0.3750204  0.3750204 -0.5000408  )
       408           Si  tau( 408) = (  0.3750204  0.3750204 -0.0000408  )
       409           C   tau( 409) = ( -0.0624694 -0.0624694 -0.4375306  )
       410           C   tau( 410) = ( -0.0624694 -0.0624694  0.0624694  )
       411           C   tau( 411) = ( -0.0624694  0.4375306 -0.4375306  )
       412           C   tau( 412) = ( -0.0624694  0.4375306  0.0624694  )
       413           C   tau( 413) = (  0.4375306 -0.0624694 -0.4375306  )
       414           C   tau( 414) = (  0.4375306 -0.0624694  0.0624694  )
       415           C   tau( 415) = (  0.4375306  0.4375306 -0.4375306  )
       416           C   tau( 416) = (  0.4375306  0.4375306  0.0624694  )
       417           Si  tau( 417) = ( -0.2500000 -0.1249796 -0.3750204  )
       418           Si  tau( 418) = ( -0.2500000 -0.1249796  0.1249796  )
       419           Si  tau( 419) = ( -0.2500000  0.3750204 -0.3750204  )
       420           Si  tau( 420) = ( -0.2500000  0.3750204  0.1249796  )
       421           Si  tau( 421) = (  0.2500000 -0.1249796 -0.3750204  )
       422           Si  tau( 422) = (  0.2500000 -0.1249796  0.1249796  )
       423           Si  tau( 423) = (  0.2500000  0.3750204 -0.3750204  )
       424           Si  tau( 424) = (  0.2500000  0.3750204  0.1249796  )
       425           C   tau( 425) = ( -0.1874898 -0.0624694 -0.3125102  )
       426           C   tau( 426) = ( -0.1874898 -0.0624694  0.1874898  )
       427           C   tau( 427) = ( -0.1874898  0.4375306 -0.3125102  )
       428           C   tau( 428) = ( -0.1874898  0.4375306  0.1874898  )
       429           C   tau( 429) = (  0.3125102 -0.0624694 -0.3125102  )
       430           C   tau( 430) = (  0.3125102 -0.0624694  0.1874898  )
       431           C   tau( 431) = (  0.3125102  0.4375306 -0.3125102  )
       432           C   tau( 432) = (  0.3125102  0.4375306  0.1874898  )
       433           Si  tau( 433) = ( -0.1249796 -0.2500000 -0.3750204  )
       434           Si  tau( 434) = ( -0.1249796 -0.2500000  0.1249796  )
       435           Si  tau( 435) = ( -0.1249796  0.2500000 -0.3750204  )
       436           Si  tau( 436) = ( -0.1249796  0.2500000  0.1249796  )
       437           Si  tau( 437) = (  0.3750204 -0.2500000 -0.3750204  )
       438           Si  tau( 438) = (  0.3750204 -0.2500000  0.1249796  )
       439           Si  tau( 439) = (  0.3750204  0.2500000 -0.3750204  )
       440           Si  tau( 440) = (  0.3750204  0.2500000  0.1249796  )
       441           C   tau( 441) = ( -0.0624694 -0.1874898 -0.3125102  )
       442           C   tau( 442) = ( -0.0624694 -0.1874898  0.1874898  )
       443           C   tau( 443) = ( -0.0624694  0.3125102 -0.3125102  )
       444           C   tau( 444) = ( -0.0624694  0.3125102  0.1874898  )
       445           C   tau( 445) = (  0.4375306 -0.1874898 -0.3125102  )
       446           C   tau( 446) = (  0.4375306 -0.1874898  0.1874898  )
       447           C   tau( 447) = (  0.4375306  0.3125102 -0.3125102  )
       448           C   tau( 448) = (  0.4375306  0.3125102  0.1874898  )
       449           Si  tau( 449) = ( -0.2500000 -0.2500000 -0.2500000  )
       450           Si  tau( 450) = ( -0.2500000 -0.2500000  0.2500000  )
       451           Si  tau( 451) = ( -0.2500000  0.2500000 -0.2500000  )
       452           Si  tau( 452) = ( -0.2500000  0.2500000  0.2500000  )
       453           Si  tau( 453) = (  0.2500000 -0.2500000 -0.2500000  )
       454           Si  tau( 454) = (  0.2500000 -0.2500000  0.2500000  )
       455           Si  tau( 455) = (  0.2500000  0.2500000 -0.2500000  )
       456           Si  tau( 456) = (  0.2500000  0.2500000  0.2500000  )
       457           C   tau( 457) = ( -0.1874898 -0.1874898 -0.1874898  )
       458           C   tau( 458) = ( -0.1874898 -0.1874898  0.3125102  )
       459           C   tau( 459) = ( -0.1874898  0.3125102 -0.1874898  )
       460           C   tau( 460) = ( -0.1874898  0.3125102  0.3125102  )
       461           C   tau( 461) = (  0.3125102 -0.1874898 -0.1874898  )
       462           C   tau( 462) = (  0.3125102 -0.1874898  0.3125102  )
       463           C   tau( 463) = (  0.3125102  0.3125102 -0.1874898  )
       464           C   tau( 464) = (  0.3125102  0.3125102  0.3125102  )
       465           Si  tau( 465) = ( -0.1249796 -0.1249796 -0.2500000  )
       466           Si  tau( 466) = ( -0.1249796 -0.1249796  0.2500000  )
       467           Si  tau( 467) = ( -0.1249796  0.3750204 -0.2500000  )
       468           Si  tau( 468) = ( -0.1249796  0.3750204  0.2500000  )
       469           Si  tau( 469) = (  0.3750204 -0.1249796 -0.2500000  )
       470           Si  tau( 470) = (  0.3750204 -0.1249796  0.2500000  )
       471           Si  tau( 471) = (  0.3750204  0.3750204 -0.2500000  )
       472           Si  tau( 472) = (  0.3750204  0.3750204  0.2500000  )
       473           C   tau( 473) = ( -0.0624694 -0.0624694 -0.1874898  )
       474           C   tau( 474) = ( -0.0624694 -0.0624694  0.3125102  )
       475           C   tau( 475) = ( -0.0624694  0.4375306 -0.1874898  )
       476           C   tau( 476) = ( -0.0624694  0.4375306  0.3125102  )
       477           C   tau( 477) = (  0.4375306 -0.0624694 -0.1874898  )
       478           C   tau( 478) = (  0.4375306 -0.0624694  0.3125102  )
       479           C   tau( 479) = (  0.4375306  0.4375306 -0.1874898  )
       480           C   tau( 480) = (  0.4375306  0.4375306  0.3125102  )
       481           Si  tau( 481) = ( -0.2500000 -0.1249796 -0.1249796  )
       482           Si  tau( 482) = ( -0.2500000 -0.1249796  0.3750204  )
       483           Si  tau( 483) = ( -0.2500000  0.3750204 -0.1249796  )
       484           Si  tau( 484) = ( -0.2500000  0.3750204  0.3750204  )
       485           Si  tau( 485) = (  0.2500000 -0.1249796 -0.1249796  )
       486           Si  tau( 486) = (  0.2500000 -0.1249796  0.3750204  )
       487           Si  tau( 487) = (  0.2500000  0.3750204 -0.1249796  )
       488           Si  tau( 488) = (  0.2500000  0.3750204  0.3750204  )
       489           C   tau( 489) = ( -0.1874898 -0.0624694 -0.0624694  )
       490           C   tau( 490) = ( -0.1874898 -0.0624694  0.4375306  )
       491           C   tau( 491) = ( -0.1874898  0.4375306 -0.0624694  )
       492           C   tau( 492) = ( -0.1874898  0.4375306  0.4375306  )
       493           C   tau( 493) = (  0.3125102 -0.0624694 -0.0624694  )
       494           C   tau( 494) = (  0.3125102 -0.0624694  0.4375306  )
       495           C   tau( 495) = (  0.3125102  0.4375306 -0.0624694  )
       496           C   tau( 496) = (  0.3125102  0.4375306  0.4375306  )
       497           Si  tau( 497) = ( -0.1249796 -0.2500000 -0.1249796  )
       498           Si  tau( 498) = ( -0.1249796 -0.2500000  0.3750204  )
       499           Si  tau( 499) = ( -0.1249796  0.2500000 -0.1249796  )
       500           Si  tau( 500) = ( -0.1249796  0.2500000  0.3750204  )
       501           Si  tau( 501) = (  0.3750204 -0.2500000 -0.1249796  )
       502           Si  tau( 502) = (  0.3750204 -0.2500000  0.3750204  )
       503           Si  tau( 503) = (  0.3750204  0.2500000 -0.1249796  )
       504           Si  tau( 504) = (  0.3750204  0.2500000  0.3750204  )
       505           C   tau( 505) = ( -0.0624694 -0.1874898 -0.0624694  )
       506           C   tau( 506) = ( -0.0624694 -0.1874898  0.4375306  )
       507           C   tau( 507) = ( -0.0624694  0.3125102 -0.0624694  )
       508           C   tau( 508) = ( -0.0624694  0.3125102  0.4375306  )
       509           C   tau( 509) = (  0.4375306 -0.1874898 -0.0624694  )
       510           C   tau( 510) = (  0.4375306 -0.1874898  0.4375306  )
       511           C   tau( 511) = (  0.4375306  0.3125102 -0.0624694  )
       512           C   tau( 512) = (  0.4375306  0.3125102  0.4375306  )

     number of k points=     1
                       cart. coord. in units 2pi/alat
        k(    1) = (   0.0000000   0.0000000   0.0000000), wk =   2.0000000

                       cryst. coord.
        k(    1) = (   0.0000000   0.0000000   0.0000000), wk =   2.0000000

     Dense  grid:  1001465 G-vectors     FFT dimensions: ( 125, 125, 125)

     Dynamical RAM for                 wfc:      61.09 MB

     Dynamical RAM for     wfc (w. buffer):      61.09 MB

     Dynamical RAM for           str. fact:       0.96 MB

     Dynamical RAM for           local pot:       0.00 MB

     Dynamical RAM for          nlocal pot:     244.38 MB

     Dynamical RAM for                qrad:       2.84 MB

     Dynamical RAM for          rho,v,vnew:       2.86 MB

     Dynamical RAM for               rhoin:       0.95 MB

     Dynamical RAM for            rho*nmix:       7.64 MB

     Dynamical RAM for           G-vectors:       2.03 MB

     Dynamical RAM for          h,s,v(r/c):       7.66 MB

     Dynamical RAM for          <psi|beta>:      64.00 MB

     Dynamical RAM for                 psi:     122.19 MB

     Dynamical RAM for                hpsi:     122.19 MB

     Dynamical RAM for      wfcinit/wfcrot:     146.20 MB

     Estimated static dynamical RAM per process >     326.57 MB

     Estimated max dynamical RAM per process >     642.60 MB

     Estimated total dynamical RAM >      20.08 GB

     Initial potential from superposition of free atoms

     starting charge 2034.38283, renormalised to 2048.00000
     Starting wfcs are random

     total cpu time spent up to now is       11.5 secs

     Self-consistent Calculation

     iteration #  1     ecut=    35.00 Ry     beta= 0.70
     Davidson diagonalization with overlap
     ethr =  1.00E-02,  avg # of iterations = 12.0

     total cpu time spent up to now is      162.9 secs

     total energy              =   -4904.49177374 Ry
     Harris-Foulkes estimate   =   -4954.54616626 Ry
     estimated scf accuracy    <      80.80584182 Ry

     iteration #  2     ecut=    35.00 Ry     beta= 0.70
     Davidson diagonalization with overlap
     ethr =  3.95E-03,  avg # of iterations =  2.0

     total cpu time spent up to now is      207.4 secs

     total energy              =   -4928.40036032 Ry
     Harris-Foulkes estimate   =   -4936.10360425 Ry
     estimated scf accuracy    <      14.03665804 Ry

     iteration #  3     ecut=    35.00 Ry     beta= 0.70
     Davidson diagonalization with overlap
     ethr =  6.85E-04,  avg # of iterations =  2.0

     total cpu time spent up to now is      239.9 secs

     total energy              =   -4929.10164406 Ry
     Harris-Foulkes estimate   =   -4929.62158816 Ry
     estimated scf accuracy    <       0.88050447 Ry

     iteration #  4     ecut=    35.00 Ry     beta= 0.70
     Davidson diagonalization with overlap
     ethr =  4.30E-05,  avg # of iterations =  4.0

     total cpu time spent up to now is      300.5 secs

     total energy              =   -4929.86518621 Ry
     Harris-Foulkes estimate   =   -4930.11515117 Ry
     estimated scf accuracy    <       1.05700833 Ry

     iteration #  5     ecut=    35.00 Ry     beta= 0.70
     Davidson diagonalization with overlap
     ethr =  4.30E-05,  avg # of iterations =  1.0

     total cpu time spent up to now is      328.8 secs

     total energy              =   -4929.82069212 Ry
     Harris-Foulkes estimate   =   -4929.89085865 Ry
     estimated scf accuracy    <       0.54981987 Ry

     iteration #  6     ecut=    35.00 Ry     beta= 0.70
     Davidson diagonalization with overlap
     ethr =  2.68E-05,  avg # of iterations =  1.0

     total cpu time spent up to now is      357.0 secs

     total energy              =   -4929.74546540 Ry
     Harris-Foulkes estimate   =   -4929.82991916 Ry
     estimated scf accuracy    <       0.35869247 Ry

     iteration #  7     ecut=    35.00 Ry     beta= 0.70
     Davidson diagonalization with overlap
     ethr =  1.75E-05,  avg # of iterations =  1.0

     total cpu time spent up to now is      385.3 secs

     total energy              =   -4929.70398796 Ry
     Harris-Foulkes estimate   =   -4929.75983163 Ry
     estimated scf accuracy    <       0.14315869 Ry

     iteration #  8     ecut=    35.00 Ry     beta= 0.70
     Davidson diagonalization with overlap
     ethr =  6.99E-06,  avg # of iterations =  2.0

     total cpu time spent up to now is      427.2 secs

     total energy              =   -4929.72221649 Ry
     Harris-Foulkes estimate   =   -4929.72824836 Ry
     estimated scf accuracy    <       0.01933867 Ry

     iteration #  9     ecut=    35.00 Ry     beta= 0.70
     Davidson diagonalization with overlap
     ethr =  9.44E-07,  avg # of iterations =  4.0

     total cpu time spent up to now is      471.9 secs

     total energy              =   -4929.72718855 Ry
     Harris-Foulkes estimate   =   -4929.72780550 Ry
     estimated scf accuracy    <       0.00448478 Ry

     End of self-consistent calculation

     convergence NOT achieved after   9 iterations: stopping
 
     init_run     :     11.03s CPU     11.35s WALL (       1 calls)
     electrons    :    457.42s CPU    460.55s WALL (       1 calls)

     Called by init_run:
     wfcinit      :     10.38s CPU     10.62s WALL (       1 calls)
     wfcinit:atom :      0.01s CPU      0.01s WALL (       1 calls)
     wfcinit:wfcr :     10.10s CPU     10.22s WALL (       1 calls)
     potinit      :      0.07s CPU      0.08s WALL (       1 calls)
     hinit0       :      0.22s CPU      0.28s WALL (       1 calls)

     Called by electrons:
     c_bands      :    442.78s CPU    445.71s WALL (       9 calls)
     sum_band     :     13.87s CPU     13.95s WALL (       9 calls)
     v_of_rho     :      0.46s CPU      0.46s WALL (      10 calls)
     v_h          :      0.04s CPU      0.04s WALL (      10 calls)
     v_xc         :      0.41s CPU      0.42s WALL (      10 calls)
     mix_rho      :      0.14s CPU      0.14s WALL (       9 calls)

     Called by c_bands:
     init_us_2    :      2.33s CPU      2.41s WALL (      19 calls)
     cegterg      :    437.12s CPU    439.83s WALL (       9 calls)

     Called by sum_band:

     Called by *egterg:
     h_psi        :    259.83s CPU    261.51s WALL (      39 calls)
     g_psi        :      0.43s CPU      0.43s WALL (      29 calls)
     cdiaghg      :     28.55s CPU     29.07s WALL (      38 calls)
     cegterg:over :     55.69s CPU     55.73s WALL (      29 calls)
     cegterg:upda :     33.55s CPU     33.80s WALL (      29 calls)
     cegterg:last :     56.99s CPU     57.02s WALL (      23 calls)
     cdiaghg:chol :      2.29s CPU      2.39s WALL (      38 calls)
     cdiaghg:inve :      3.09s CPU      3.23s WALL (      38 calls)
     cdiaghg:para :      7.06s CPU      7.06s WALL (      76 calls)

     Called by h_psi:
     h_psi:pot    :    258.90s CPU    260.23s WALL (      39 calls)
     h_psi:calbec :     95.95s CPU     96.06s WALL (      39 calls)
     vloc_psi     :     71.09s CPU     71.59s WALL (      39 calls)
     add_vuspsi   :     91.87s CPU     92.57s WALL (      39 calls)

     General routines
     calbec       :     95.95s CPU     96.06s WALL (      39 calls)
     fft          :      0.28s CPU      0.33s WALL (     101 calls)
     ffts         :      0.02s CPU      0.02s WALL (       9 calls)
     fftw         :     72.17s CPU     72.60s WALL (   72246 calls)
     davcio       :      0.00s CPU      0.12s WALL (      18 calls)
 
     Parallel routines
     fft_scatt_xy :     11.56s CPU     11.70s WALL (   72356 calls)
     fft_scatt_yz :     20.41s CPU     20.37s WALL (   72356 calls)
 
     PWSCF        :  7m48.57s CPU     7m52.03s WALL

 
   This run was terminated on:  23:20:48  13Oct2018            

=------------------------------------------------------------------------------=
   JOB DONE.
=------------------------------------------------------------------------------=
